[ ConsensusPocket ]
39 40 41 42 43 44 45 46 47 48 49 50 51 52 53
54 55 56 57 58 59 60 61 62 63 64 65 66 67 68
69 70 71 100 101 102 103 104 105 106 107 108 109 110 111
112 113 114 115 116 117 118 119 120 121 122 123 124 125 148
149 150 151 152 153 154 155 156 157 158 194 195 196 197 198
199 200 216 217 218 219 220 221 222 223 224 225 226 227 228
229 230 231 232 233 234 235 236 237 238 239 240 241 242 243
244 245 246 247 248 249 250 251 271 272 273 274 275 276 277
278 279 280 467 468 469 470 471 472 473 474 475 476 477 478
479 480 481 482 483 484 485 486 487 488 489 490 491 492 493
494 495 496 497 498 499 500 501 502 503 504 505 506 507 508
509 510 511 512 513 514 515 516 517 518 519 520 521 522 523
524 525 526 527 528 529 530 531 532 533 534 535 536 537 538
539 540 541 542 543 544 545 546 547 548 549 550 551 552 553
554 555 556 557 558 559 560 561 562 563 564 565 566 567 568
569 797 798 799 800 801 802 803 804 805 806 807 808 809 810
811 812 813 814 815 816 817 818 819 820 821 822 823 824 825
826 827 828 829 830 846 847 848 849 850 851 852 853 854 855
856 857 858 859 860 861 862 863 864 865 866 867 868 869 870
871 872 873 874 875 876 877 878 879 880 881 882 912 913 914
915 916 917 918 919 920 921 922 923 924 925 926 927 928 929
930 945 946 947 948 949 950 951 952 953 954 955 956 957 958
959 960 961 962 963 964 965 966 967 968 969 970 971 972 973
974 975 976 977 978 979 980 981 982 983 984 985 986 987 988
989 990 991 992 993 994 995 996 997 998 999 1000 1001 1002 1003
1004 1005 1006 1007 1008 1009 1010 1011 1012 1013 1014 1015 1016 1017 1042
1043 1044 1045 1046 1047 1048 1049 1050 1051 1052 1053 1054 1055 1056 1057
1058 1059 1060 1080 1081 1082 1083 1084 1085 1086 1087 1088 1089 1090 1091
1092 1093 1094 1095 1096 1097 1098 1099 1100 1101 1102 1103 1104 1105 1106
1107 1108 1109 1110 1111 1112 1113 1114 1115 1116 1195 1196 1197 1198 1199
1200 1201 1202 1203 1204 1205 1206 1207 1208 1209 1210 1211 1233 1234 1235
1236 1237 1238 1239 1240 1241 1242 1243 1244 1245 1246 1247 1248 1249 1250
1251 1252 1253 1254 1255 1256 1257 1258 1259 1260 1261 1262 1263 1264 1265
1285 1286 1287 1288 1289 1290 1291 1292 1293 1294 1295 1296 1297 1298 1299
1300 1301 1302 1303 1304 1305 1306 1307 1308 1309 1310 1311 1312 1313 1314
1315 1316 1317 1318 1319 1320 1321 1322 1323 1324 1325 1326 1327 1328 1329
1330 1331 1332 1333 1334 1335 1336 1349 1350 1351 1352 1353 1354 1355 1356
1357 1358 1359 1360 1361 1362 1363 1364 1365 1366 1367 1368 1369 1370 1371
1372 1373 1374 1375 1376 1377 1378 1379 1380 1381 1382 1383 1384 1385 1386
1387 1388 1389 1390 1391 1392 1393 1394 1395 1396 1397 1398 1399 1400 1401
1402 1403 1404 1405 1465 1466 1467 1468 1469 1470 1471 1472 1473 1474 1475
1476 1477 1478 1479 1480 1481 1482 1483 1484 1485 1486 1487 1488 1489 1490
1491 1492 1493 1494 1495 1496 1497 1498 1499 1500 1501 1502 1503 1504 1505
1506 1507 1725 1726 1727 1728 1729 1730 1731 1732 1733 1734 1735 1736 1737
1738 1739 1740 1741 1742 1743 1856 1857 1858 1859 1860 1861 1862 1863 1864
1865 1866 1867 1868 1869 1870 1871 1872 1873 1874 1900 1901 1902 1903 1904
1905 1906 1907 1908 1909 1910 1911 1912 1913 1914 1915 1916 1917 1918 1919
1920 1921 1922 1923 1924 1925 1926 1927 1928 1929 1930 1931 1932 1962 1963
1964 1965 1966 1967 1968 1969 1970 1971 1972 1973 1974 1975 1976 1977 1978
1979 1980 1981 1982 1983 1984 1985 2001 2002 2003 2004 2005 2006 2007 2008
2009 2010 2011 2012 2013 2014 2015 2016 2017 2018 2019 2020 2021 2022 2023
2024 2025 2026 2027 2028 2029 2030 2031 2032 2033 2034 2035 2036 2120 2121
2122 2123 2124 2125 2126 2127 2128 2129 2130 2131 2132 2133 2134 2135 2136
2137 2138 2139 2140 2141 2142 2143 2144 2145 2146 2147 2148 2149 2150 2151
2152 2153 2154 2155 2156 2157 2158 2159 2160 2161 2162 2163 2164 2165 2166
2167 2168 2169 2170 2171 2172 2173 2174 2187 2188 2189 2190 2191 2192 2193
2194 2195 2196 2197 2198 2199 2200 2201 2202 2203 2204 2205 2206 2207 2208
2209 2210 2211 2212 2213 2214 2215 2216 2217 2218 2219 2220 2221 2222 2223
2224 2225 2250 2251 2252 2253 2254 2255 2256 2257 2258 2259 2260 2261 2262
2263 2264 2265 2266 2267 2268 2269 2270 2271 2272 2273 2274 2275 2276 2277
2278 2279 2280 2281 2282 2283 2284 2285 2286 2287 2288 2289 2290 2291 2292
2293 2294 2295 2296 2297 2298 2299 2300 2301 2302 2303 2304 2305 2306 2307
2308 2309 2348 2349 2350 2351 2352 2353 2354 2355 2356 2357 2358 2359 2360
2361 2362 2363 2364 2365 2366 2367 2368 2369 2370 2371 2389 2390 2391 2392
2393 2394 2395 2396 2397 2398 2399 2400 2401 2402 2403 2404 2405 2406 2407
2408 2409 2410 2411 2412 2413 2414 2415 2416 2417 2418 2419 2420 2421 2422
2423 2424 2425 2426 2427 2428 2429 2430 2431 2432 2433 2434 2435 2436 2437
2438 2439 2440 2441 2442 2443 2444 2445 2446 2447 2448 2449 2450 2451 2452
2453 2454 2455 2456 2457 2458 2459 2460 2461 2462 2463 2464 2465 2466 2467
2468 2469 2470 2471 2472 2473 2474 2475 2476 2477 2478 2479 2480 2481 2482
2483 2484 2485 2486 2487 2488 2489 2490 2491 2492 2493 2494 2495 2496 2497
2498 2499 2500 2501 2502 2503 2504 2505 2506 2507 2508 2815 2816 2817 2818
2819 2820 2821 2822 2823 2824 2825 2826 2827 2828 2829 2830 2831 2832 2833
2858 2859 2860 2861 2862 2863 2864 2865 2866 2867 2868 2869 2870 2871 2872
2873 2874 2875 2876 2877 2878 2879 2880 2881 2882 2883 2884 2885 2886 2887
2888 2889 2890 2891 2892 2893 2894 2895 2896 2897 2898 2899 2900 2901 2902
2903 2904 2905 2906 2907 2908 2909 2939 2940 2941 2942 2943 2944 2945 2946
2947 2948 3021 3022 3023 3024 3025 3026 3027 3028 3029 3030 3031 3032 3033
3034 3035 3036 3037 3038 3039 3040 3099 3100 3101 3102 3103 3104 3105 3106
3107 3108 3109 3110 3127 3128 3129 3130 3131 3132 3133 3134 3135 3136 3137
3138 3139 3140 3141 3142 3143 3144 3145 3146 3147 3148 3149 3150 3151 3152
3153 3154 3155 3156 3157 3158 3159 3160 3161 3162 3163 3164 3165 3166 3167
3168 3169 3170 3171 3172 3173 3174 3175 3176 3177 3178 3179 3180 3188 3189
3190 3191 3192 3193 3194 3195 3196 3197 3198 3199 3200 3201 3202 3203 3204
3205 3206 3207 3208 3209 3210 3211 3212 3213 3214 3215 3216 3217 3218 3219
3220 3221 3222 3264 3265 3266 3267 3268 3269 3270 3271 3272 3273 3274 3275
3276 3277 3278 3279 3280 3281 3282 3283 3284 3285 3286 3287 3288 3289 3290
3291 3292 3293 3294 3368 3369 3370 3371 3372 3373 3374 3375 3376 3377 3378
3379 3380 3381 3382 3383 3384 3496 3497 3498 3499 3500 3501 3502 3503 3504
3505 3506 3507 3508 3509 3510 3511 3512 3513 3514 3515 3516 3517 3518 3519
3520 3521 3522 3523 3524 3525 3526 3527 3528 3529 3530
