[ ConsensusPocket ]
36 37 38 39 40 41 42 43 44 45 46 47 48 49 50
51 52 53 54 55 56 57 58 59 60 61 62 63 64 65
66 67 68 69 70 71 72 73 74 75 76 106 107 108 109
110 111 112 113 114 115 116 117 118 119 120 121 122 123 124
125 126 127 128 129 130 131 146 147 148 149 150 151 152 184
185 186 187 188 189 190 191 192 193 194 219 220 221 222 223
224 225 226 227 228 229 230 231 232 233 234 235 236 237 238
239 240 241 242 243 244 245 246 247 248 249 250 275 276 277
278 279 280 281 282 283 284 285 286 287 288 289 290 431 432
433 434 435 436 437 438 439 440 441 442 443 444 445 446 447
448 449 450 451 452 453 454 455 456 457 458 459 460 461 462
463 464 465 466 467 468 469 470 471 472 473 474 475 476 477
478 479 480 481 482 483 484 485 486 487 488 489 490 491 492
493 494 495 496 497 498 499 500 501 502 503 504 505 506 507
508 509 510 511 512 513 514 515 516 517 518 519 520 521 522
523 524 525 526 527 528 529 530 531 532 533 534 736 737 738
739 740 741 742 743 744 745 746 747 748 749 750 751 752 753
754 755 756 757 758 759 760 761 762 763 764 765 766 767 768
769 781 782 783 784 785 786 787 788 789 790 791 792 793 794
795 796 797 798 799 800 801 802 803 804 805 806 807 808 809
810 811 812 813 814 815 864 865 866 867 868 869 870 871 872
873 874 875 876 877 878 879 891 892 893 894 895 896 897 898
899 900 901 902 903 904 905 906 907 908 909 910 911 912 913
914 915 916 917 918 919 920 921 922 923 924 925 926 927 928
929 930 931 932 933 934 935 936 937 938 939 940 941 942 943
944 945 946 947 948 949 950 951 952 953 954 955 956 957 958
959 960 961 962 963 964 965 966 967 968 969 970 971 972 973
974 975 976 977 978 979 980 981 982 983 984 985 986 987 1005
1006 1007 1008 1009 1010 1011 1012 1013 1014 1015 1016 1017 1018 1019 1020
1021 1022 1023 1041 1042 1043 1044 1045 1046 1047 1048 1049 1050 1051 1052
1053 1054 1055 1056 1057 1058 1059 1060 1061 1062 1063 1064 1065 1066 1067
1068 1069 1070 1071 1072 1073 1074 1075 1076 1077 1078 1079 1080 1081 1082
1083 1084 1085 1086 1087 1088 1089 1090 1091 1092 1093 1094 1168 1169 1170
1171 1172 1173 1174 1175 1176 1177 1178 1179 1180 1181 1182 1183 1205 1206
1207 1208 1209 1210 1211 1212 1213 1214 1215 1216 1217 1218 1219 1220 1221
1222 1223 1224 1225 1226 1227 1228 1229 1230 1231 1232 1233 1234 1235 1236
1237 1255 1256 1257 1258 1259 1260 1261 1262 1263 1264 1265 1266 1267 1268
1269 1270 1271 1272 1273 1274 1275 1276 1277 1278 1279 1280 1281 1282 1283
1284 1285 1286 1287 1288 1289 1290 1291 1292 1293 1294 1295 1296 1297 1298
1313 1314 1315 1316 1317 1318 1319 1320 1321 1322 1323 1324 1325 1326 1327
1328 1329 1330 1331 1332 1333 1334 1335 1336 1337 1338 1339 1340 1341 1342
1343 1344 1345 1346 1347 1348 1349 1350 1351 1352 1353 1354 1355 1356 1357
1358 1359 1360 1417 1418 1419 1420 1421 1422 1423 1424 1425 1426 1427 1428
1429 1430 1431 1432 1433 1434 1435 1436 1437 1438 1439 1440 1441 1442 1443
1444 1445 1446 1447 1448 1449 1450 1451 1452 1453 1454 1500 1501 1502 1503
1504 1505 1506 1507 1508 1509 1510 1511 1512 1513 1514 1515 1516 1517 1518
1519 1635 1636 1637 1638 1639 1640 1641 1642 1643 1644 1645 1646 1647 1648
1649 1650 1651 1652 1653 1690 1691 1692 1693 1694 1695 1696 1697 1698 1699
1700 1701 1702 1703 1704 1705 1706 1707 1708 1709 1710 1711 1712 1713 1714
1715 1716 1717 1718 1719 1720 1721 1722 1745 1746 1747 1748 1749 1750 1751
1752 1753 1754 1755 1756 1757 1758 1759 1760 1761 1762 1763 1764 1765 1766
1767 1768 1769 1770 1795 1796 1797 1798 1799 1800 1801 1802 1803 1804 1805
1806 1807 1808 1809 1810 1811 1812 1813 1814 1815 1816 1817 1818 1819 1820
1821 1822 1823 1824 1825 1826 1827 1828 1829 1830 1831 1832 1833 1834 1917
1918 1919 1920 1921 1922 1923 1924 1925 1926 1927 1928 1929 1930 1931 1932
1933 1934 1935 1936 1937 1938 1939 1940 1941 1942 1943 1944 1945 1946 1947
1948 1949 1950 1951 1952 1953 1954 1955 1956 1957 1958 1959 1960 1961 1962
1963 1964 1965 1966 1967 1968 1969 1970 1971 1986 1987 1988 1989 1990 1991
1992 1993 1994 1995 1996 1997 1998 1999 2000 2001 2002 2003 2004 2005 2006
2007 2008 2009 2010 2011 2012 2013 2014 2015 2016 2017 2018 2019 2020 2021
2022 2023 2024 2025 2026 2027 2028 2029 2030 2031 2032 2033 2034 2035 2036
2037 2038 2039 2040 2056 2057 2058 2059 2060 2061 2062 2063 2064 2065 2066
2067 2068 2069 2070 2071 2072 2073 2074 2075 2076 2077 2078 2079 2080 2081
2082 2083 2084 2085 2086 2087 2088 2089 2090 2091 2092 2093 2094 2095 2096
2097 2098 2099 2100 2101 2102 2103 2104 2105 2106 2107 2108 2109 2110 2111
2112 2113 2114 2115 2116 2117 2118 2119 2120 2121 2122 2123 2124 2125 2126
2127 2128 2218 2219 2220 2221 2222 2223 2224 2225 2226 2227 2228 2251 2252
2253 2254 2255 2256 2257 2258 2259 2260 2261 2262 2263 2264 2265 2266 2267
2268 2269 2270 2271 2272 2273 2274 2275 2276 2277 2278 2279 2280 2281 2282
2283 2284 2285 2286 2287 2288 2289 2290 2291 2292 2293 2294 2295 2296 2297
2298 2299 2300 2301 2302 2303 2304 2305 2306 2307 2308 2309 2310 2311 2312
2313 2314 2315 2316 2317 2318 2319 2320 2321 2322 2323 2324 2325 2326 2327
2328 2329 2330 2331 2332 2333 2334 2335 2336 2337 2338 2339 2340 2341 2342
2343 2344 2345 2346 2347 2348 2349 2350 2351 2352 2353 2354 2355 2356 2357
2358 2359 2360 2361 2362 2363 2364 2365 2366 2367 2368 2369 2370 2371 2372
2373 2374 2375 2376 2377 2378 2379 2645 2646 2647 2648 2649 2650 2651 2652
2653 2654 2655 2656 2657 2658 2674 2675 2676 2677 2678 2679 2680 2681 2682
2683 2684 2685 2686 2687 2688 2689 2690 2691 2692 2693 2694 2695 2696 2697
2698 2699 2700 2701 2702 2703 2704 2705 2706 2707 2708 2709 2710 2711 2712
2713 2714 2715 2716 2717 2718 2719 2720 2721 2722 2723 2753 2754 2755 2756
2757 2758 2759 2760 2761 2762 2763 2764 2765 2766 2767 2768 2867 2868 2869
2870 2871 2872 2873 2874 2875 2876 2877 2878 2879 2880 2881 2882 2883 2884
2885 2886 2887 2939 2940 2941 2942 2943 2944 2945 2946 2947 2948 2949 2950
2968 2969 2970 2971 2972 2973 2974 2975 2976 2977 2978 2979 2980 2981 2982
2983 2984 2985 2986 2987 2988 2989 2990 2991 2992 2993 2994 2995 2996 2997
2998 2999 3000 3001 3002 3003 3004 3005 3006 3007 3008 3009 3010 3011 3012
3013 3014 3015 3016 3017 3018 3019 3020 3028 3029 3030 3031 3032 3033 3034
3035 3036 3037 3038 3039 3040 3041 3042 3043 3044 3045 3046 3047 3048 3049
3050 3051 3052 3053 3054 3055 3056 3057 3058 3059 3060 3061 3062 3098 3099
3100 3101 3102 3103 3104 3105 3106 3107 3108 3109 3110 3111 3112 3113 3114
3115 3116 3117 3118 3119 3120 3121 3122 3123 3124 3125 3126 3184 3185 3186
3187 3188 3189 3190 3191 3192 3193 3194 3195 3196 3197 3198 3199 3200 3201
3202 3342 3343 3344 3345 3346 3347 3348 3349 3350 3351 3352 3353 3354 3355
3356 3357 3358 3359 3360 3361 3362 3363 3364 3365 3366 3367 3368 3369 3370
3371 3372 3373 3374 3375 3376 3377 3378 3379 3380 3381
