
; NPT equilibration  
title       = NPT equilibration
integrator  = md
nsteps      = 50000    ; 100 ps
dt          = 0.002    ; 2 fs
nstxout     = 1000
nstvout     = 1000
nstenergy   = 1000
nstlog      = 1000
continuation = yes
constraint_algorithm = lincs
constraints = all-bonds
nstlist     = 10
cutoff-scheme = Verlet
coulombtype = PME
rcoulomb    = 1.0
rvdw        = 1.0
tcoupl      = V-rescale
tc-grps     = System
tau_t       = 0.1
ref_t       = 300
pcoupl      = Parrinello-Rahman
pcoupltype  = isotropic
tau_p       = 2.0
ref_p       = 1.0
compressibility = 4.5e-5
