[ ConsensusPocket ]
37 38 39 40 41 42 43 44 45 46 47 48 49 50 51
52 53 54 55 56 57 58 59 60 61 62 63 64 65 66
67 68 69 70 71 72 73 74 75 76 77 107 108 109 110
111 112 113 114 115 116 117 118 119 120 121 122 123 124 125
126 127 128 129 130 131 132 150 151 152 153 154 155 156 188
189 190 191 192 193 194 195 196 197 198 199 200 201 224 225
226 227 228 229 230 231 232 233 234 235 236 237 238 239 240
241 242 243 244 245 246 247 248 249 250 251 252 253 254 255
256 257 258 259 260 261 262 263 288 289 290 291 292 293 294
513 514 515 516 517 518 519 520 521 522 523 524 525 526 527
528 529 530 531 532 533 534 535 536 537 538 539 540 541 542
543 544 545 546 547 548 549 550 551 552 553 554 555 556 557
558 559 560 561 562 563 564 565 566 567 568 569 570 571 572
573 574 575 576 577 578 579 580 581 582 583 584 585 586 587
588 589 590 591 592 593 594 595 596 597 598 599 600 601 602
603 604 605 606 607 608 609 610 611 612 613 614 615 616 617
618 619 620 621 827 828 829 830 831 832 833 834 835 836 837
838 839 840 841 842 843 844 845 846 858 859 860 861 862 863
864 865 866 867 868 869 870 871 872 873 874 875 876 877 878
879 880 881 882 883 884 885 886 887 888 889 890 891 892 893
922 923 924 925 926 927 928 929 930 931 932 933 934 935 936
937 949 950 951 952 953 954 955 956 957 958 959 960 961 962
963 964 965 966 967 968 969 970 971 972 973 974 975 976 977
978 979 980 981 982 983 984 985 986 987 988 989 990 991 992
993 994 995 996 997 998 999 1000 1001 1002 1003 1004 1005 1006 1007
1008 1009 1010 1011 1012 1013 1014 1015 1016 1017 1018 1019 1020 1021 1022
1023 1024 1025 1026 1027 1028 1029 1030 1031 1032 1033 1034 1035 1036 1037
1038 1039 1040 1041 1042 1043 1044 1045 1065 1066 1067 1068 1069 1070 1071
1072 1073 1074 1075 1076 1077 1078 1079 1080 1081 1082 1083 1101 1102 1103
1104 1105 1106 1107 1108 1109 1110 1111 1112 1113 1114 1115 1116 1117 1118
1119 1120 1121 1122 1123 1124 1125 1126 1127 1128 1129 1130 1131 1132 1133
1134 1181 1182 1183 1184 1185 1186 1187 1188 1189 1190 1191 1206 1207 1208
1209 1210 1211 1212 1213 1214 1215 1216 1217 1218 1219 1220 1221 1222 1223
1224 1225 1226 1227 1228 1229 1230 1231 1232 1233 1234 1235 1236 1237 1238
1256 1257 1258 1259 1260 1261 1262 1263 1264 1265 1266 1267 1268 1269 1270
1271 1272 1273 1274 1275 1276 1277 1278 1279 1280 1281 1282 1283 1284 1285
1286 1287 1288 1289 1290 1291 1292 1293 1294 1295 1296 1297 1298 1299 1300
1301 1302 1303 1304 1305 1306 1324 1325 1326 1327 1328 1329 1330 1331 1332
1333 1334 1335 1336 1337 1338 1339 1340 1341 1342 1343 1344 1345 1346 1347
1348 1349 1350 1351 1352 1353 1354 1355 1356 1357 1358 1359 1360 1361 1362
1363 1364 1365 1366 1367 1368 1369 1370 1371 1372 1373 1374 1375 1376 1377
1378 1429 1430 1431 1432 1433 1434 1435 1436 1437 1438 1439 1440 1441 1442
1443 1444 1445 1446 1447 1448 1449 1450 1451 1452 1453 1454 1455 1456 1457
1458 1459 1460 1461 1462 1463 1464 1465 1466 1467 1468 1469 1470 1471 1561
1562 1563 1564 1565 1566 1567 1568 1569 1570 1571 1572 1573 1574 1575 1576
1694 1695 1696 1697 1698 1699 1700 1701 1702 1703 1704 1705 1706 1707 1708
1709 1748 1749 1750 1751 1752 1753 1754 1755 1756 1757 1758 1759 1760 1761
1762 1763 1764 1765 1766 1767 1768 1769 1770 1771 1772 1773 1774 1775 1776
1777 1778 1779 1780 1781 1782 1783 1815 1816 1817 1818 1819 1820 1821 1822
1823 1824 1825 1826 1827 1828 1829 1830 1831 1832 1833 1834 1835 1836 1837
1838 1839 1840 1841 1842 1843 1858 1859 1860 1861 1862 1863 1864 1865 1866
1867 1868 1869 1870 1871 1872 1873 1874 1875 1876 1877 1878 1879 1880 1881
1882 1883 1884 1885 1886 1887 1888 1889 1890 1891 1892 1893 1894 1895 1896
1897 1973 1974 1975 1976 1977 1978 1979 1980 1981 1982 1983 1984 1985 1986
1987 1988 1989 1990 1991 1992 1993 1994 1995 1996 1997 1998 1999 2000 2001
2002 2003 2004 2005 2006 2007 2008 2009 2010 2025 2026 2027 2028 2029 2030
2031 2032 2033 2034 2035 2036 2037 2038 2039 2040 2041 2042 2043 2044 2045
2046 2047 2048 2049 2050 2051 2052 2053 2054 2055 2056 2057 2058 2059 2060
2061 2086 2087 2088 2089 2090 2091 2092 2093 2094 2095 2096 2097 2098 2099
2100 2101 2102 2103 2104 2105 2106 2107 2108 2109 2110 2111 2112 2113 2114
2115 2116 2117 2118 2119 2120 2121 2122 2123 2124 2125 2126 2127 2128 2129
2130 2131 2132 2133 2134 2135 2136 2137 2138 2139 2140 2141 2142 2143 2144
2145 2146 2147 2148 2149 2150 2151 2152 2153 2154 2155 2156 2157 2158 2159
2160 2161 2272 2273 2274 2275 2276 2277 2278 2279 2280 2281 2282 2283 2284
2285 2306 2307 2308 2309 2310 2311 2312 2313 2314 2315 2316 2317 2318 2319
2320 2321 2322 2323 2324 2325 2326 2327 2328 2329 2330 2331 2332 2333 2334
2335 2336 2337 2338 2339 2340 2341 2342 2343 2344 2345 2346 2347 2348 2349
2350 2351 2352 2353 2354 2355 2356 2357 2358 2359 2360 2361 2362 2363 2364
2365 2366 2367 2368 2369 2370 2371 2372 2373 2374 2375 2376 2377 2378 2379
2380 2381 2382 2383 2384 2385 2386 2387 2388 2389 2390 2391 2392 2393 2394
2395 2396 2397 2398 2399 2400 2401 2402 2403 2404 2405 2406 2407 2408 2409
2410 2411 2412 2413 2414 2415 2416 2417 2418 2419 2420 2421 2422 2423 2424
2425 2627 2628 2629 2630 2631 2632 2633 2634 2635 2636 2637 2638 2639 2640
2641 2642 2643 2644 2645 2660 2661 2662 2663 2664 2665 2666 2667 2668 2669
2670 2671 2672 2673 2674 2675 2676 2677 2678 2679 2680 2681 2682 2683 2684
2685 2686 2687 2688 2689 2690 2691 2692 2693 2694 2695 2696 2697 2698 2699
2700 2701 2702 2703 2704 2705 2706 2707 2708 2709 2739 2740 2741 2742 2743
2744 2745 2746 2747 2748 2749 2849 2850 2851 2852 2853 2854 2855 2856 2857
2858 2859 2860 2861 2862 2863 2864 2865 2866 2867 2923 2924 2925 2926 2927
2928 2929 2930 2931 2932 2933 2934 2957 2958 2959 2960 2961 2962 2963 2964
2965 2966 2967 2968 2969 2970 2971 2972 2973 2974 2975 2976 2977 2978 2979
2980 2981 2982 2983 2984 2985 2986 2987 2988 2989 2990 2991 2992 2993 2994
2995 2996 2997 2998 2999 3000 3001 3002 3003 3004 3005 3006 3007 3015 3016
3017 3018 3019 3020 3021 3022 3023 3024 3025 3026 3027 3028 3029 3030 3031
3032 3033 3034 3035 3036 3037 3038 3079 3080 3081 3082 3083 3084 3085 3086
3087 3088 3089 3090 3091 3092 3093 3094 3095 3096 3097 3098 3099 3100 3101
3102 3103 3104 3105 3106 3107 3108 3109 3178 3179 3180 3181 3182 3183 3184
3185 3186 3187 3188 3189 3190 3191 3192 3193 3194 3326 3327 3328 3329 3330
3331 3332 3333 3334 3335 3336 3337 3338 3339 3340 3341 3342 3343 3344 3345
3346 3347 3348 3349 3350 3351 3352 3353 3354 3355 3356 3357 3358 3359 3360
3361 3362 3363 3364 3365 3366
