[ ConsensusPocket ]
1 2 3 4 5 6 7 8 9 10 11 12 13 14 15
16 17 18 19 20 21 22 23 24 25 26 57 58 59 60
61 62 63 64 65 66 67 68 69 70 71 72 73 74 75
76 77 78 79 80 81 82 83 84 85 86 104 105 106 107
108 109 110 111 112 113 114 115 116 117 118 119 120 121 122
123 124 125 126 127 198 199 200 201 202 203 204 205 206 207
208 209 221 222 223 224 225 226 227 228 229 230 231 232 233
234 235 236 237 238 239 240 241 242 243 244 245 246 247 248
249 250 251 271 272 273 274 275 276 277 278 279 280 392 393
394 395 396 397 398 399 400 401 402 403 404 405 406 407 408
409 410 411 412 413 414 415 416 417 418 419 420 421 422 423
424 425 426 427 428 429 430 431 432 433 434 435 436 437 438
439 440 441 442 443 444 445 446 447 448 449 450 451 452 453
454 455 456 457 458 459 460 461 462 463 464 465 466 467 468
469 470 471 472 473 474 475 476 477 478 479 480 481 482 483
484 485 486 487 488 489 490 491 492 797 798 799 800 801 802
803 804 805 806 807 808 809 810 811 812 813 814 815 816 817
818 819 820 821 822 823 824 825 826 827 828 829 830 831 832
845 846 847 848 849 850 851 852 853 854 855 856 857 858 859
860 861 862 863 864 865 866 867 868 869 870 871 872 873 874
875 876 877 914 915 916 917 918 919 920 921 922 923 924 925
926 927 928 929 930 931 932 948 949 950 951 952 953 954 955
956 957 958 959 960 961 962 963 964 965 966 967 968 969 970
971 972 973 974 975 976 977 978 979 980 981 982 983 984 985
986 987 988 989 990 991 992 993 994 995 996 997 998 999 1000
1001 1002 1003 1004 1005 1006 1007 1008 1009 1010 1011 1012 1013 1014 1015
1016 1017 1018 1019 1020 1021 1022 1023 1024 1025 1026 1027 1028 1029 1030
1031 1032 1055 1056 1057 1058 1059 1060 1061 1062 1063 1064 1065 1066 1067
1068 1069 1070 1071 1072 1073 1074 1092 1093 1094 1095 1096 1097 1098 1099
1100 1101 1102 1103 1104 1105 1106 1107 1108 1109 1110 1111 1112 1113 1114
1115 1116 1117 1118 1119 1120 1121 1122 1123 1124 1125 1126 1127 1128 1129
1130 1131 1132 1133 1134 1135 1136 1137 1138 1139 1140 1141 1142 1143 1144
1145 1146 1147 1148 1149 1150 1151 1152 1153 1154 1155 1156 1157 1158 1307
1308 1309 1310 1311 1312 1313 1314 1315 1316 1317 1318 1319 1320 1321 1322
1342 1343 1344 1345 1346 1347 1348 1349 1350 1351 1352 1353 1354 1355 1356
1357 1358 1359 1360 1361 1362 1363 1364 1365 1366 1367 1368 1369 1370 1371
1372 1373 1374 1375 1376 1377 1378 1379 1380 1395 1396 1397 1398 1399 1400
1401 1402 1403 1404 1405 1406 1407 1408 1409 1410 1411 1412 1413 1414 1415
1416 1417 1418 1419 1420 1421 1422 1423 1424 1425 1426 1427 1428 1429 1430
1431 1432 1433 1434 1435 1436 1437 1438 1439 1440 1441 1442 1443 1444 1445
1446 1447 1459 1460 1461 1462 1463 1464 1465 1466 1467 1468 1469 1470 1471
1472 1473 1474 1475 1476 1477 1478 1479 1480 1481 1482 1483 1484 1485 1486
1487 1488 1489 1490 1491 1492 1493 1494 1495 1496 1497 1498 1499 1500 1501
1502 1503 1504 1505 1506 1566 1567 1568 1569 1570 1571 1572 1573 1574 1575
1576 1577 1578 1579 1580 1581 1582 1583 1584 1585 1586 1587 1588 1589 1590
1591 1592 1593 1594 1595 1596 1597 1598 1599 1600 1601 1602 1603 1604 1605
1606 1754 1755 1756 1757 1758 1759 1760 1761 1762 1763 1764 1765 1766 1767
1768 1769 1770 1902 1903 1904 1905 1906 1907 1908 1909 1910 1911 1912 1913
1914 1915 1916 1917 1918 1919 1920 1921 1922 1923 1924 1925 1951 1952 1953
1954 1955 1956 1957 1958 1959 1960 1961 1962 1963 1964 1965 1966 1967 1968
1969 1970 1971 1972 1973 1974 1975 1976 1977 1978 1979 1980 1981 1982 1983
1984 1985 1986 2017 2018 2019 2020 2021 2022 2023 2024 2025 2026 2027 2028
2029 2030 2031 2032 2033 2034 2035 2036 2037 2038 2039 2040 2041 2042 2043
2044 2045 2057 2058 2059 2060 2061 2062 2063 2064 2065 2066 2067 2068 2069
2070 2071 2072 2073 2074 2075 2076 2077 2078 2079 2080 2081 2082 2083 2084
2085 2086 2087 2088 2089 2090 2091 2092 2093 2094 2095 2096 2195 2196 2197
2198 2199 2200 2201 2202 2203 2204 2205 2206 2207 2208 2209 2210 2211 2212
2213 2214 2215 2216 2217 2218 2219 2220 2221 2222 2223 2224 2225 2226 2227
2228 2229 2230 2231 2232 2233 2234 2235 2236 2237 2252 2253 2254 2255 2256
2257 2258 2259 2260 2261 2262 2263 2264 2265 2266 2267 2268 2269 2270 2271
2272 2273 2274 2275 2276 2277 2278 2279 2280 2281 2282 2283 2284 2285 2286
2287 2288 2289 2290 2291 2292 2293 2294 2295 2308 2309 2310 2311 2312 2313
2314 2315 2316 2317 2318 2319 2320 2321 2322 2323 2324 2325 2326 2327 2328
2329 2330 2331 2332 2333 2334 2335 2336 2337 2338 2339 2340 2341 2342 2343
2344 2345 2346 2347 2348 2349 2350 2351 2352 2353 2354 2355 2356 2357 2358
2359 2360 2361 2362 2363 2364 2365 2366 2367 2368 2369 2370 2371 2372 2373
2374 2375 2376 2377 2378 2379 2428 2429 2430 2431 2432 2433 2434 2454 2455
2456 2457 2458 2459 2460 2461 2462 2463 2464 2465 2466 2467 2468 2469 2470
2471 2472 2473 2474 2475 2476 2477 2478 2479 2480 2481 2482 2483 2484 2485
2486 2487 2488 2489 2490 2491 2492 2493 2494 2495 2496 2497 2498 2499 2500
2501 2502 2503 2504 2505 2506 2507 2508 2509 2510 2511 2512 2513 2514 2515
2516 2517 2518 2519 2520 2521 2522 2523 2524 2525 2526 2527 2528 2529 2530
2531 2532 2533 2534 2535 2536 2537 2538 2539 2540 2541 2542 2543 2544 2545
2546 2547 2548 2549 2550 2551 2552 2553 2554 2555 2556 2557 2832 2833 2834
2835 2836 2837 2838 2839 2840 2841 2842 2843 2844 2845 2846 2847 2848 2849
2850 2868 2869 2870 2871 2872 2873 2874 2875 2876 2877 2878 2879 2880 2881
2882 2883 2884 2885 2886 2887 2888 2889 2890 2891 2892 2893 2894 2895 2896
2897 2898 2899 2900 2901 2902 2903 2904 2905 2906 2907 2908 2909 2910 2911
2912 2913 2914 2915 2916 2917 2947 2948 2949 2950 2951 2952 2953 2954 2955
2956 2957 2958 2959 2960 2961 2962 2963 2964 2965 2966 2967 3034 3035 3036
3037 3038 3039 3040 3041 3042 3043 3044 3045 3046 3047 3048 3049 3104 3105
3106 3107 3108 3109 3110 3111 3112 3113 3114 3115 3135 3136 3137 3138 3139
3140 3141 3142 3143 3144 3145 3146 3147 3148 3149 3150 3151 3152 3153 3154
3155 3156 3157 3158 3159 3160 3161 3162 3163 3164 3165 3166 3167 3168 3169
3170 3171 3172 3173 3174 3175 3176 3177 3178 3179 3180 3181 3182 3183 3184
3185 3186 3194 3195 3196 3197 3198 3199 3200 3201 3202 3203 3204 3205 3206
3207 3208 3209 3210 3211 3212 3213 3214 3215 3216 3217 3218 3219 3220 3221
3251 3252 3253 3254 3255 3256 3257 3258 3259 3260 3261 3262 3263 3264 3265
3266 3267 3268 3269 3270 3271 3272 3273 3274 3275 3276 3277 3278 3279 3280
3281 3282 3343 3344 3345 3346 3347 3348 3349 3350 3351 3352 3353 3354 3355
3356 3357 3358 3359 3360 3361 3527 3528 3529 3530 3531 3532 3533 3534 3535
3536 3537 3538 3539 3540 3541 3542 3543 3544 3545 3546 3547 3548 3549 3550
3551 3552 3553 3554 3555
