; Production MD run
title           = production run

; Run parameters
integrator      = md        ; leap-frog integrator
nsteps          = 500000  ; 500000 = 1.000 ns (at dt=0.002)
dt              = 0.002      ; unit in gromacs is ps so it is 2 fs
comm-mode       = Linear

; Output control
nstxout         = 0         ; do not write .trr positions
nstvout         = 0         ; do not write velocities to .trr
nstfout         = 0         ; do not write forces to .trr
nstenergy       = 50000     ; write energy to .edr every 50000 steps
nstlog          = 50000
nstxout-compressed = 50000  ; write .xtc every 50000 steps

; Bond parameters
continuation         = yes       ; continuation from NPT
constraint_algorithm = lincs     ; holonomic constraints
constraints          = h-bonds   ; bonds with H-atoms to constraints
lincs_iter           = 1         ; accuracy of LINCS
lincs_order          = 6         ; 6 is needed for large time steps with virtual sites or BD

; Neighbor searching
cutoff-scheme   = Verlet
ns_type         = grid      ; search neighboring grid cells
nstlist         = 20        ; 20*2fs = 40 fs

; Electrostatics
coulombtype     = PME       ; for long range electrostatics
ewald-rtol      = 1e-5
pme_order       = 4         ; cubic interpolation
fourierspacing  = 0.12      ; grid spacing for FFT
optimize-fft    = yes
rlist           = 1.2            ; short-range neighbor list cutoff (in nm)
rcoulomb        = 1.2         ; short-range electrostatic cutoff (in nm)
vdwtype         = cutoff          ; twin range cutoffs with neighbor list
vdw-modifier    = force-switch     ; smoothly switches the forces to zero
rvdw            = 1.2             ; short-range van der Waals cutoff (in nm)
rvdw-switch     = 1.0      ; where to start switching the LJ force

; Temperature coupling is on
tcoupl          = V-rescale           ; modified Berendsen thermostat
tc-grps         = Protein Non-Protein           ; two coupling groups - more accurate
tau_t           = 0.1 0.1             ; time constant, in ps
ref_t           = 310.0 310.0             ; reference temperature, one for each group, in K

; Periodic boundary conditions
pbc             = xyz       ; 3-D PBC

; Dispersion correction
DispCorr        = no        ; set to 'no' for production runs

; Pressure coupling is on
pcoupl          = Berendsen ; pressure coupling on
pcoupltype      = isotropic ; uniform scaling of box vectors
tau_p           = 2.0       ; time constant, in ps
ref_p           = 1.0; reference pressure, in bar
compressibility = 4.5e-5    ; isothermal compressibility of water, bar^-1
refcoord-scaling= all

gen_vel         = no        ; velocities from NPT
