[ ConsensusPocket ]
44 45 46 47 48 49 50 51 52 53 54 55 56 57 58
59 60 61 62 63 64 65 66 67 68 69 70 71 72 73
74 75 76 77 109 110 111 112 113 114 115 116 117 118 119
120 121 122 123 124 125 126 127 128 129 130 131 132 133 134
149 150 151 152 153 154 155 187 188 189 190 191 192 193 209
210 211 212 213 214 215 216 217 218 219 220 221 222 223 224
225 226 227 228 229 230 231 232 233 234 235 236 237 238 239
240 241 242 243 244 245 246 247 248 266 267 268 269 270 271
272 472 473 474 475 476 477 478 479 480 481 482 483 484 485
486 487 488 489 490 491 492 493 494 495 496 497 498 499 500
501 502 503 504 505 506 507 508 509 510 511 512 513 514 515
516 517 518 519 520 521 522 523 524 525 526 527 528 529 530
531 532 533 534 535 536 537 538 539 540 541 542 543 544 545
546 547 548 549 550 551 552 553 554 555 556 557 558 559 560
561 562 760 761 762 763 764 765 766 767 768 769 770 771 772
773 774 775 776 777 778 779 780 781 782 783 784 785 786 787
788 789 790 791 792 793 804 805 806 807 808 809 810 811 812
813 814 815 816 817 818 819 820 821 822 823 824 825 826 827
828 829 830 831 832 833 834 835 836 837 838 863 864 865 866
867 868 869 870 871 872 873 874 875 876 877 878 879 880 881
882 900 901 902 903 904 905 906 907 908 909 910 911 912 913
914 915 916 917 918 919 920 921 922 923 924 925 926 927 928
929 930 931 932 933 934 935 936 937 938 939 940 941 942 943
944 945 946 947 948 949 950 951 952 953 954 955 956 957 958
959 960 961 962 963 964 965 966 967 968 969 970 971 972 973
974 975 976 977 978 979 980 981 982 1007 1008 1009 1010 1011 1012
1013 1014 1015 1016 1017 1018 1019 1020 1021 1022 1023 1024 1025 1041 1042
1043 1044 1045 1046 1047 1048 1049 1050 1051 1052 1053 1054 1055 1056 1057
1058 1059 1060 1061 1062 1063 1064 1065 1066 1067 1068 1069 1070 1071 1072
1073 1074 1075 1076 1077 1078 1079 1165 1166 1167 1168 1169 1170 1171 1172
1173 1174 1175 1176 1177 1178 1179 1180 1181 1182 1183 1201 1202 1203 1204
1205 1206 1207 1208 1209 1210 1211 1212 1213 1214 1215 1216 1217 1218 1219
1220 1221 1222 1223 1224 1225 1226 1227 1228 1229 1230 1231 1232 1233 1234
1235 1250 1251 1252 1253 1254 1255 1256 1257 1258 1259 1260 1261 1262 1263
1264 1265 1266 1267 1268 1269 1270 1271 1272 1273 1274 1275 1276 1277 1278
1279 1280 1281 1282 1283 1284 1285 1286 1287 1288 1289 1290 1291 1292 1293
1294 1295 1296 1297 1298 1299 1300 1301 1317 1318 1319 1320 1321 1322 1323
1324 1325 1326 1327 1328 1329 1330 1331 1332 1333 1334 1335 1336 1337 1338
1339 1340 1341 1342 1343 1344 1345 1346 1347 1348 1349 1350 1351 1352 1353
1354 1355 1356 1357 1358 1359 1360 1361 1362 1363 1364 1365 1366 1367 1368
1369 1370 1371 1372 1373 1374 1375 1419 1420 1421 1422 1423 1424 1425 1426
1427 1428 1429 1430 1431 1432 1433 1434 1435 1436 1437 1438 1439 1440 1441
1442 1443 1444 1445 1446 1447 1448 1449 1450 1451 1452 1453 1454 1455 1456
1457 1458 1459 1460 1461 1542 1543 1544 1545 1546 1547 1548 1549 1550 1551
1552 1553 1554 1555 1556 1557 1558 1559 1560 1561 1665 1666 1667 1668 1669
1670 1671 1672 1673 1674 1675 1676 1677 1678 1679 1680 1681 1723 1724 1725
1726 1727 1728 1729 1730 1731 1732 1733 1734 1735 1736 1737 1738 1739 1740
1741 1742 1743 1744 1745 1766 1767 1768 1769 1770 1771 1772 1773 1774 1775
1776 1777 1778 1779 1780 1781 1782 1783 1784 1785 1786 1787 1788 1789 1790
1791 1792 1810 1811 1812 1813 1814 1815 1816 1817 1818 1819 1820 1821 1822
1823 1824 1825 1826 1827 1828 1829 1830 1831 1832 1833 1834 1835 1836 1837
1838 1839 1840 1841 1842 1843 1844 1845 1846 1847 1848 1849 1922 1923 1924
1925 1926 1927 1928 1929 1930 1931 1932 1933 1934 1935 1936 1937 1938 1939
1940 1941 1942 1943 1944 1945 1946 1947 1948 1949 1950 1951 1952 1953 1954
1955 1956 1957 1958 1959 1960 1961 1962 1963 1964 1965 1966 1967 1968 1969
1970 1971 1972 1973 1974 1975 1976 1977 1978 1990 1991 1992 1993 1994 1995
1996 1997 1998 1999 2000 2001 2002 2003 2004 2005 2006 2007 2008 2009 2010
2011 2012 2013 2014 2015 2016 2017 2018 2019 2020 2021 2022 2023 2024 2025
2026 2027 2028 2029 2047 2048 2049 2050 2051 2052 2053 2054 2055 2056 2057
2058 2059 2060 2061 2062 2063 2064 2065 2066 2067 2068 2069 2070 2071 2072
2073 2074 2075 2076 2077 2078 2079 2080 2081 2082 2083 2084 2085 2086 2087
2088 2089 2090 2091 2092 2093 2094 2095 2096 2097 2098 2099 2100 2101 2102
2103 2104 2105 2106 2107 2108 2151 2152 2153 2154 2155 2156 2157 2158 2159
2160 2161 2162 2163 2164 2165 2166 2167 2168 2169 2186 2187 2188 2189 2190
2191 2192 2193 2194 2195 2196 2197 2198 2199 2200 2201 2202 2203 2204 2205
2206 2207 2208 2209 2210 2211 2212 2213 2214 2215 2216 2217 2218 2219 2220
2221 2222 2223 2224 2225 2226 2227 2228 2229 2230 2231 2232 2233 2234 2235
2236 2237 2238 2239 2240 2241 2242 2243 2244 2245 2246 2247 2248 2249 2250
2251 2252 2253 2254 2255 2256 2257 2258 2259 2260 2261 2262 2263 2264 2265
2266 2267 2268 2269 2270 2271 2272 2273 2274 2275 2276 2277 2278 2279 2280
2281 2282 2283 2284 2285 2286 2287 2288 2289 2290 2291 2292 2293 2294 2295
2296 2297 2298 2299 2300 2301 2302 2303 2304 2305 2306 2307 2308 2309 2310
2311 2416 2417 2418 2419 2420 2421 2422 2423 2424 2425 2426 2427 2428 2429
2430 2431 2432 2433 2434 2459 2460 2461 2462 2463 2464 2465 2466 2467 2468
2469 2470 2471 2472 2473 2474 2475 2476 2477 2478 2479 2480 2481 2482 2483
2484 2485 2486 2487 2488 2489 2490 2491 2492 2493 2494 2495 2496 2497 2498
2499 2500 2501 2502 2532 2533 2534 2535 2536 2537 2538 2539 2540 2541 2542
2543 2544 2545 2546 2547 2623 2624 2625 2626 2627 2628 2629 2630 2631 2632
2633 2634 2635 2636 2637 2638 2639 2690 2691 2692 2693 2694 2695 2696 2697
2698 2699 2700 2701 2718 2719 2720 2721 2722 2723 2724 2725 2726 2727 2728
2729 2730 2731 2732 2733 2734 2735 2736 2737 2738 2739 2740 2741 2742 2743
2744 2745 2746 2747 2748 2749 2750 2751 2752 2753 2754 2755 2756 2757 2758
2759 2760 2761 2762 2763 2764 2765 2766 2767 2768 2769 2770 2771 2772 2780
2781 2782 2783 2784 2785 2786 2787 2788 2789 2790 2791 2792 2793 2794 2795
2796 2797 2798 2799 2800 2801 2802 2803 2804 2805 2806 2807 2808 2809 2810
2811 2812 2813 2814 2815 2816 2817 2859 2860 2861 2862 2863 2864 2865 2866
2867 2868 2869 2870 2871 2872 2873 2874 2875 2876 2877 2878 2879 2880 2881
2882 2883 2884 2885 2886 2887 2888 2889 2961 2962 2963 2964 2965 2966 2967
2968 2969 2970 2971 2972 2973 2974 2975 2976 2977 2978 2979 2980 2981 2982
2983 2984 3131 3132 3133 3134 3135 3136 3137 3138 3139 3140 3141 3142 3143
3144 3145 3146 3147 3148 3149 3150 3151 3152 3153 3154 3155 3156 3157 3158
3159 3160 3161 3162 3163 3164 3165
