[ ConsensusPocket ]
39 40 41 42 43 44 45 46 47 48 49 50 51 52 53
54 55 56 57 58 59 60 61 62 63 64 65 66 67 68
69 70 71 72 73 74 75 76 107 108 109 110 111 112 113
114 115 116 117 118 119 120 121 122 123 124 125 126 127 128
129 130 131 132 155 156 157 158 159 160 161 228 229 230 231
232 233 234 235 236 237 238 239 240 241 242 243 244 259 260
261 262 263 264 265 266 267 268 269 270 271 272 273 274 275
276 277 278 279 280 281 282 283 284 285 286 287 288 308 309
310 311 312 313 314 315 316 317 456 457 458 459 460 461 462
463 464 465 466 467 468 469 470 471 472 473 474 475 476 477
478 479 480 481 482 483 484 485 486 487 488 489 490 491 492
493 494 495 496 497 498 499 500 501 502 503 504 505 506 507
508 509 510 511 512 513 514 515 516 517 518 519 520 521 522
523 524 525 526 527 528 529 530 531 532 533 534 535 536 537
538 539 540 541 542 543 544 545 546 547 548 549 550 551 552
553 554 555 556 557 558 559 560 561 562 563 564 565 566 567
568 788 789 790 791 792 793 794 795 796 797 798 799 800 801
802 803 804 805 806 807 808 809 810 811 812 813 814 815 816
817 818 819 820 821 839 840 841 842 843 844 845 846 847 848
849 850 851 852 853 854 855 856 857 858 859 860 861 862 863
864 865 907 908 909 910 911 912 913 914 915 916 917 918 919
920 921 922 923 924 925 926 941 942 943 944 945 946 947 948
949 950 951 952 953 954 955 956 957 958 959 960 961 962 963
964 965 966 967 968 969 970 971 972 973 974 975 976 977 978
979 980 981 982 983 984 985 986 987 988 989 990 991 992 993
994 995 996 997 998 999 1000 1001 1002 1003 1004 1005 1006 1007 1008
1009 1010 1011 1012 1013 1014 1015 1016 1017 1018 1019 1020 1035 1036 1037
1038 1039 1040 1041 1042 1043 1044 1045 1046 1047 1048 1049 1050 1051 1052
1053 1054 1055 1080 1081 1082 1083 1084 1085 1086 1087 1088 1089 1090 1091
1092 1093 1094 1095 1096 1097 1098 1099 1100 1101 1102 1103 1104 1105 1106
1107 1108 1109 1110 1111 1112 1113 1114 1115 1116 1117 1118 1119 1120 1121
1122 1123 1194 1195 1196 1197 1198 1199 1200 1201 1202 1203 1204 1205 1206
1207 1208 1209 1210 1211 1212 1237 1238 1239 1240 1241 1242 1243 1244 1245
1246 1247 1248 1249 1250 1251 1252 1253 1254 1255 1256 1257 1258 1259 1260
1261 1262 1263 1264 1265 1266 1267 1268 1283 1284 1285 1286 1287 1288 1289
1290 1291 1292 1293 1294 1295 1296 1297 1298 1299 1300 1301 1302 1303 1304
1305 1306 1307 1308 1309 1310 1311 1312 1313 1314 1315 1316 1317 1318 1319
1320 1321 1322 1323 1324 1325 1326 1327 1328 1329 1330 1341 1342 1343 1344
1345 1346 1347 1348 1349 1350 1351 1352 1353 1354 1355 1356 1357 1358 1359
1360 1361 1362 1363 1364 1365 1366 1367 1368 1369 1370 1371 1372 1373 1374
1375 1376 1377 1378 1379 1380 1381 1382 1383 1384 1385 1386 1387 1388 1389
1443 1444 1445 1446 1447 1448 1449 1450 1451 1452 1453 1454 1455 1456 1457
1458 1459 1460 1461 1462 1463 1464 1465 1466 1467 1468 1469 1470 1471 1472
1560 1561 1562 1563 1564 1565 1566 1567 1568 1569 1570 1571 1572 1573 1574
1575 1576 1685 1686 1687 1688 1689 1690 1691 1692 1693 1694 1695 1696 1697
1698 1699 1700 1701 1702 1703 1740 1741 1742 1743 1744 1745 1746 1747 1748
1749 1750 1751 1752 1753 1754 1755 1756 1757 1758 1759 1760 1761 1762 1804
1805 1806 1807 1808 1809 1810 1811 1812 1813 1814 1815 1816 1817 1818 1819
1820 1821 1822 1823 1824 1825 1826 1827 1828 1829 1830 1831 1832 1845 1846
1847 1848 1849 1850 1851 1852 1853 1854 1855 1856 1857 1858 1859 1860 1861
1862 1863 1864 1865 1866 1867 1868 1869 1870 1871 1872 1873 1874 1875 1876
1877 1878 1879 1880 1881 1882 1883 1884 1964 1965 1966 1967 1968 1969 1970
1971 1972 1973 1974 1975 1976 1977 1978 1979 1980 1981 1982 1983 1984 1985
1986 1987 1988 1989 1990 1991 1992 1993 1994 1995 1996 1997 1998 1999 2000
2001 2002 2003 2004 2005 2006 2007 2008 2009 2010 2011 2012 2013 2014 2015
2016 2017 2018 2019 2020 2032 2033 2034 2035 2036 2037 2038 2039 2040 2041
2042 2043 2044 2045 2046 2047 2048 2049 2050 2051 2052 2053 2054 2055 2056
2057 2058 2059 2060 2061 2062 2063 2064 2065 2066 2067 2068 2069 2070 2071
2072 2073 2074 2075 2076 2077 2078 2079 2091 2092 2093 2094 2095 2096 2097
2098 2099 2100 2101 2102 2103 2104 2105 2106 2107 2108 2109 2110 2111 2112
2113 2114 2115 2116 2117 2118 2119 2120 2121 2122 2123 2124 2125 2126 2127
2128 2129 2130 2131 2132 2133 2134 2135 2136 2137 2138 2139 2140 2141 2142
2143 2144 2145 2146 2147 2148 2149 2150 2151 2152 2153 2154 2155 2156 2157
2158 2159 2160 2161 2162 2163 2164 2204 2205 2206 2207 2208 2209 2210 2233
2234 2235 2236 2237 2238 2239 2240 2241 2242 2243 2244 2245 2246 2247 2248
2249 2250 2251 2252 2253 2254 2255 2256 2257 2258 2259 2260 2261 2262 2263
2264 2265 2266 2267 2268 2269 2270 2271 2272 2273 2274 2275 2276 2277 2278
2279 2280 2281 2282 2283 2284 2285 2286 2287 2288 2289 2290 2291 2292 2293
2294 2295 2296 2297 2298 2299 2300 2301 2302 2303 2304 2305 2306 2307 2308
2309 2310 2311 2312 2313 2314 2315 2316 2317 2318 2319 2320 2321 2322 2323
2324 2325 2326 2327 2328 2329 2330 2331 2332 2333 2334 2335 2336 2337 2338
2339 2340 2341 2342 2343 2344 2345 2346 2347 2348 2349 2350 2351 2352 2353
2354 2355 2356 2357 2358 2359 2360 2761 2762 2763 2764 2765 2766 2767 2768
2769 2770 2771 2772 2773 2774 2775 2776 2777 2778 2779 2794 2795 2796 2797
2798 2799 2800 2801 2802 2803 2804 2805 2806 2807 2808 2809 2810 2811 2812
2813 2814 2815 2816 2817 2818 2819 2820 2821 2822 2823 2824 2825 2826 2827
2828 2829 2830 2831 2832 2833 2834 2835 2836 2837 2838 2839 2840 2841 2842
2843 2844 2845 2846 2847 2877 2878 2879 2880 2881 2882 2883 2884 2885 2886
2887 2888 2889 2890 2891 2892 3003 3004 3005 3006 3007 3008 3009 3010 3011
3012 3013 3014 3015 3016 3017 3018 3019 3020 3021 3022 3023 3079 3080 3081
3082 3083 3084 3085 3086 3087 3088 3089 3090 3110 3111 3112 3113 3114 3115
3116 3117 3118 3119 3120 3121 3122 3123 3124 3125 3126 3127 3128 3129 3130
3131 3132 3133 3134 3135 3136 3137 3138 3139 3140 3141 3142 3143 3144 3145
3146 3147 3148 3149 3150 3151 3152 3153 3154 3155 3156 3157 3165 3166 3167
3168 3169 3170 3171 3172 3173 3174 3175 3176 3177 3178 3179 3180 3181 3182
3183 3184 3185 3186 3187 3188 3189 3190 3191 3192 3193 3194 3195 3196 3197
3219 3220 3221 3222 3223 3224 3225 3226 3227 3228 3229 3230 3231 3232 3233
3234 3235 3236 3237 3238 3239 3240 3241 3242 3243 3244 3245 3246 3247 3248
3249 3250 3251 3252 3301 3302 3303 3304 3305 3306 3307 3308 3309 3310 3311
3312 3313 3314 3315 3316 3457 3458 3459 3460 3461 3462 3463 3464 3465 3466
3467 3468 3469 3470 3471 3472 3473 3474 3475 3476 3477 3478 3479 3480 3481
3482 3483 3484 3485 3486 3487 3488 3489 3490 3491 3492
