[ ConsensusPocket ]
41 42 43 44 45 46 47 48 49 50 51 52 53 54 55
56 57 58 59 60 61 62 63 64 65 66 67 68 69 70
71 72 73 74 75 114 115 116 117 118 119 120 121 122 123
124 125 126 127 128 129 130 131 132 133 134 135 136 137 138
139 140 141 142 143 144 145 146 161 162 163 164 165 166 167
197 198 199 200 201 202 203 220 221 222 223 224 225 226 227
228 229 230 231 232 233 234 235 236 237 238 239 240 241 242
243 244 245 246 247 248 249 250 251 252 269 270 271 272 273
274 275 276 277 278 279 280 281 282 283 284 421 422 423 424
425 426 427 428 429 430 431 432 433 434 435 436 437 438 439
440 441 442 443 444 445 446 447 448 449 450 451 452 453 454
455 456 457 458 459 460 461 462 463 464 465 466 467 468 469
470 471 472 473 474 475 476 477 478 479 480 481 482 483 484
485 486 487 488 489 490 491 492 493 494 495 496 497 498 499
500 501 502 503 504 505 506 507 508 509 510 511 512 513 514
515 516 517 518 519 520 521 522 523 524 525 526 527 715 716
717 718 719 720 721 722 723 724 725 726 727 728 729 730 731
732 733 734 735 736 737 738 739 740 741 742 743 744 745 746
747 748 766 767 768 769 770 771 772 773 774 775 776 777 778
779 780 781 782 783 784 785 786 787 788 789 790 791 792 793
794 795 796 797 798 840 841 842 843 844 845 846 847 848 849
850 851 852 853 854 855 856 857 858 883 884 885 886 887 888
889 890 891 892 893 894 895 896 897 898 899 900 901 902 903
904 905 906 907 908 909 910 911 912 913 914 915 916 917 918
919 920 921 922 923 924 925 926 927 928 929 930 931 932 933
934 935 936 937 938 939 940 941 942 943 944 945 946 947 948
949 950 951 952 953 954 955 956 973 974 975 976 977 978 979
980 981 982 983 984 985 986 987 988 989 990 991 992 993 1011
1012 1013 1014 1015 1016 1017 1018 1019 1020 1021 1022 1023 1024 1025 1026
1027 1028 1029 1030 1031 1032 1033 1034 1035 1036 1037 1038 1039 1040 1041
1042 1043 1044 1045 1046 1047 1048 1049 1050 1051 1052 1053 1054 1055 1056
1057 1058 1059 1060 1061 1062 1063 1064 1239 1240 1241 1242 1243 1244 1245
1246 1247 1248 1249 1250 1251 1252 1253 1254 1255 1256 1257 1269 1270 1271
1272 1273 1274 1275 1276 1277 1278 1279 1280 1281 1282 1283 1284 1285 1286
1287 1288 1289 1290 1291 1292 1293 1294 1295 1296 1297 1298 1299 1300 1301
1302 1303 1321 1322 1323 1324 1325 1326 1327 1328 1329 1330 1331 1332 1333
1334 1335 1336 1337 1338 1339 1340 1341 1342 1343 1344 1345 1346 1347 1348
1349 1350 1351 1352 1353 1354 1355 1356 1357 1358 1359 1360 1361 1362 1363
1364 1365 1366 1367 1368 1369 1385 1386 1387 1388 1389 1390 1391 1392 1393
1394 1395 1396 1397 1398 1399 1400 1401 1402 1403 1404 1405 1406 1407 1408
1409 1410 1411 1412 1413 1414 1415 1416 1417 1418 1419 1420 1421 1422 1423
1424 1425 1426 1427 1428 1429 1430 1431 1432 1433 1434 1483 1484 1485 1486
1487 1488 1489 1490 1491 1492 1493 1494 1495 1496 1497 1498 1499 1500 1501
1502 1503 1504 1505 1506 1507 1508 1509 1510 1511 1512 1513 1514 1515 1516
1670 1671 1672 1673 1674 1675 1676 1677 1678 1679 1680 1681 1682 1683 1684
1685 1686 1687 1688 1799 1800 1801 1802 1803 1804 1805 1806 1807 1808 1809
1810 1811 1812 1813 1814 1841 1842 1843 1844 1845 1846 1847 1848 1849 1850
1851 1852 1853 1854 1855 1856 1857 1858 1859 1860 1861 1862 1863 1864 1865
1866 1867 1868 1869 1870 1871 1872 1873 1905 1906 1907 1908 1909 1910 1911
1912 1913 1914 1915 1916 1917 1918 1919 1920 1921 1922 1923 1924 1925 1926
1927 1928 1929 1930 1931 1932 1933 1949 1950 1951 1952 1953 1954 1955 1956
1957 1958 1959 1960 1961 1962 1963 1964 1965 1966 1967 1968 1969 1970 1971
1972 1973 1974 1975 1976 1977 1978 1979 1980 1981 1982 1983 1984 1985 1986
1987 1988 2073 2074 2075 2076 2077 2078 2079 2080 2081 2082 2083 2084 2085
2086 2087 2088 2089 2090 2091 2092 2093 2094 2095 2096 2097 2098 2099 2100
2101 2102 2103 2104 2105 2106 2107 2108 2109 2110 2111 2112 2113 2114 2115
2116 2117 2118 2119 2120 2121 2122 2123 2124 2125 2126 2127 2128 2129 2130
2131 2132 2147 2148 2149 2150 2151 2152 2153 2154 2155 2156 2157 2158 2159
2160 2161 2162 2163 2164 2165 2166 2167 2168 2169 2170 2171 2172 2173 2174
2175 2176 2177 2178 2179 2180 2181 2182 2183 2184 2185 2186 2187 2188 2189
2190 2191 2192 2193 2194 2195 2196 2197 2198 2199 2200 2201 2213 2214 2215
2216 2217 2218 2219 2220 2221 2222 2223 2224 2225 2226 2227 2228 2229 2230
2231 2232 2233 2234 2235 2236 2237 2238 2239 2240 2241 2242 2243 2244 2245
2246 2247 2248 2249 2250 2251 2252 2253 2254 2255 2256 2257 2258 2259 2260
2261 2262 2263 2264 2265 2266 2267 2268 2269 2270 2271 2272 2273 2274 2275
2276 2277 2278 2279 2280 2281 2282 2283 2325 2326 2327 2328 2329 2330 2331
2332 2333 2334 2335 2336 2354 2355 2356 2357 2358 2359 2360 2361 2362 2363
2364 2365 2366 2367 2368 2369 2370 2371 2372 2373 2374 2375 2376 2377 2378
2379 2380 2381 2382 2383 2384 2385 2386 2387 2388 2389 2390 2391 2392 2393
2394 2395 2396 2397 2398 2399 2400 2401 2402 2403 2404 2405 2406 2407 2408
2409 2410 2411 2412 2413 2414 2415 2416 2417 2418 2419 2420 2421 2422 2423
2424 2425 2426 2427 2428 2429 2430 2431 2432 2433 2434 2435 2436 2437 2438
2439 2440 2441 2442 2443 2444 2445 2446 2447 2448 2449 2450 2451 2452 2453
2454 2455 2456 2457 2458 2459 2460 2461 2462 2463 2464 2465 2466 2467 2468
2469 2470 2471 2472 2473 2474 2475 2813 2814 2815 2816 2817 2818 2819 2820
2821 2822 2823 2824 2825 2826 2827 2828 2829 2830 2831 2832 2833 2834 2846
2847 2848 2849 2850 2851 2852 2853 2854 2855 2856 2857 2858 2859 2860 2861
2862 2863 2864 2865 2866 2867 2868 2869 2870 2871 2872 2873 2874 2875 2876
2877 2878 2879 2880 2881 2882 2883 2884 2885 2886 2887 2888 2889 2890 2891
2892 2893 2894 2895 2896 2926 2927 2928 2929 2930 2931 2932 2933 2934 2935
3000 3001 3002 3003 3004 3005 3006 3007 3008 3009 3010 3011 3012 3013 3014
3015 3016 3017 3018 3019 3081 3082 3083 3084 3085 3086 3087 3088 3089 3090
3091 3092 3112 3113 3114 3115 3116 3117 3118 3119 3120 3121 3122 3123 3124
3125 3126 3127 3128 3129 3130 3131 3132 3133 3134 3135 3136 3137 3138 3139
3140 3141 3142 3143 3144 3145 3146 3147 3148 3149 3150 3151 3152 3153 3154
3155 3156 3157 3158 3159 3160 3161 3162 3163 3164 3165 3173 3174 3175 3176
3177 3178 3179 3180 3181 3182 3183 3184 3185 3186 3187 3188 3189 3190 3191
3192 3193 3194 3195 3196 3197 3198 3199 3200 3201 3202 3241 3242 3243 3244
3245 3246 3247 3248 3249 3250 3251 3252 3253 3254 3255 3256 3257 3258 3259
3260 3261 3262 3263 3264 3265 3266 3267 3268 3269 3295 3296 3297 3298 3299
3300 3301 3302 3303 3304 3305 3446 3447 3448 3449 3450 3451 3452 3453 3454
3455 3456 3457 3458 3459 3460 3461 3462 3463 3464 3465 3466 3467 3468 3469
3470 3471 3472 3473 3474 3475 3476 3477 3478 3479 3480 3481 3482 3483 3484
3485 3486 3487 3488
