[ ConsensusPocket ]
29 30 31 32 33 34 35 36 37 38 39 40 41 42 43
44 45 46 47 48 49 50 51 52 53 54 55 56 57 58
59 60 61 62 63 64 65 66 67 68 69 70 71 110 111
112 113 114 115 116 117 118 119 120 121 122 123 124 125 126
127 128 129 130 131 132 133 134 135 136 137 138 139 140 141
142 143 158 159 160 161 162 163 164 165 166 167 168 169 170
171 172 173 174 175 176 199 200 201 202 203 204 205 206 207
208 209 210 228 229 230 231 232 233 234 235 236 237 238 239
240 241 242 243 244 245 246 247 248 249 250 251 252 253 254
255 256 257 258 259 260 261 262 263 288 289 290 291 292 293
294 295 296 297 415 416 417 418 419 420 421 422 423 424 425
426 427 428 429 430 431 432 433 434 435 436 437 438 439 440
441 442 443 444 445 446 447 448 449 450 451 452 453 454 455
456 457 458 459 460 461 462 463 464 465 466 467 468 469 470
471 472 473 474 475 476 477 478 479 480 481 482 483 484 485
486 487 488 489 490 491 492 493 494 495 496 497 498 499 500
501 502 503 504 505 506 507 508 509 510 511 512 513 514 515
516 517 518 625 626 627 628 629 630 631 632 633 634 635 636
637 638 639 640 641 642 643 644 645 646 647 648 649 650 651
652 653 654 665 666 667 668 669 670 671 672 673 674 675 676
677 678 679 680 681 682 683 684 685 686 687 688 689 721 722
723 724 725 726 727 728 729 730 731 732 733 734 735 736 737
738 739 761 762 763 764 765 766 767 768 769 770 771 772 773
774 775 776 777 778 779 780 781 782 783 784 785 786 787 788
789 790 791 792 793 794 795 796 797 798 799 800 801 802 803
804 805 806 807 808 809 810 811 812 813 814 815 816 817 818
819 820 821 822 823 824 825 826 827 828 829 830 831 832 833
834 835 853 854 855 856 857 858 859 860 861 862 863 864 865
866 867 868 869 870 871 886 887 888 889 890 891 892 893 894
895 896 897 898 899 900 901 902 903 904 905 906 907 908 909
910 911 912 913 914 915 916 917 918 919 920 921 922 923 924
925 926 927 928 929 930 931 932 933 934 935 936 937 938 1016
1017 1018 1019 1020 1021 1022 1023 1024 1025 1047 1048 1049 1050 1051 1052
1053 1054 1055 1056 1057 1058 1059 1060 1061 1062 1063 1064 1065 1066 1067
1068 1069 1070 1071 1072 1073 1074 1075 1076 1077 1078 1079 1080 1081 1082
1103 1104 1105 1106 1107 1108 1109 1110 1111 1112 1113 1114 1115 1116 1117
1118 1119 1120 1121 1122 1123 1124 1125 1126 1127 1128 1129 1130 1131 1132
1133 1134 1135 1136 1137 1138 1139 1140 1141 1142 1143 1144 1145 1146 1147
1148 1149 1150 1151 1152 1174 1175 1176 1177 1178 1179 1180 1181 1182 1183
1184 1185 1186 1187 1188 1189 1190 1191 1192 1193 1194 1195 1196 1197 1198
1199 1200 1201 1202 1203 1204 1205 1206 1207 1208 1209 1258 1259 1260 1261
1262 1263 1264 1265 1266 1267 1268 1269 1270 1271 1272 1273 1274 1275 1276
1277 1278 1279 1280 1281 1282 1283 1284 1285 1286 1287 1288 1289 1290 1291
1292 1293 1294 1295 1296 1297 1367 1368 1369 1370 1371 1372 1373 1374 1375
1376 1377 1378 1379 1380 1381 1382 1383 1384 1385 1499 1500 1501 1502 1503
1504 1505 1506 1507 1508 1509 1510 1511 1512 1513 1514 1515 1516 1517 1559
1560 1561 1562 1563 1564 1565 1566 1567 1568 1569 1570 1571 1572 1573 1574
1575 1576 1577 1578 1579 1580 1581 1582 1583 1584 1585 1586 1587 1588 1589
1590 1591 1592 1593 1594 1616 1617 1618 1619 1620 1621 1622 1623 1624 1625
1626 1627 1628 1629 1630 1631 1632 1633 1634 1635 1636 1637 1638 1639 1640
1641 1652 1653 1654 1655 1656 1657 1658 1659 1660 1661 1662 1663 1664 1665
1666 1667 1668 1669 1670 1671 1672 1673 1674 1675 1676 1677 1678 1679 1742
1743 1744 1745 1746 1747 1748 1749 1750 1751 1752 1753 1754 1755 1756 1757
1758 1759 1760 1761 1762 1763 1764 1765 1766 1767 1768 1769 1770 1771 1772
1773 1774 1775 1776 1777 1778 1779 1780 1781 1782 1783 1784 1785 1786 1787
1788 1789 1790 1791 1792 1793 1794 1795 1796 1797 1798 1799 1800 1813 1814
1815 1816 1817 1818 1819 1820 1821 1822 1823 1824 1825 1826 1827 1828 1829
1830 1831 1832 1833 1834 1835 1836 1837 1838 1839 1840 1841 1842 1843 1844
1845 1846 1847 1848 1849 1850 1851 1852 1853 1854 1855 1856 1857 1858 1859
1860 1861 1862 1863 1864 1865 1866 1867 1868 1869 1870 1871 1872 1897 1898
1899 1900 1901 1902 1903 1904 1905 1906 1907 1908 1909 1910 1911 1912 1913
1914 1915 1916 1917 1918 1919 1920 1921 1922 1923 1924 1925 1926 1927 1928
1929 1930 1931 1932 1933 1934 1935 1936 1937 1938 1939 1940 1941 1942 1943
1944 1945 1946 1947 1948 1949 1950 1951 1952 1953 1954 1955 1956 1957 1958
1959 1960 1961 1962 1963 1964 1965 1966 1967 1968 1969 1970 1971 1972 1973
1974 1975 1976 1977 2066 2067 2068 2069 2070 2071 2072 2073 2074 2075 2076
2077 2078 2079 2104 2105 2106 2107 2108 2109 2110 2111 2112 2113 2114 2115
2116 2117 2118 2119 2120 2121 2122 2123 2124 2125 2126 2127 2128 2129 2130
2131 2132 2133 2134 2135 2136 2137 2138 2139 2140 2141 2142 2143 2144 2145
2146 2147 2148 2149 2150 2151 2152 2153 2154 2155 2156 2157 2158 2159 2160
2161 2162 2163 2164 2165 2166 2167 2168 2169 2170 2171 2172 2173 2174 2175
2176 2177 2178 2179 2180 2181 2182 2183 2184 2185 2186 2187 2188 2189 2190
2191 2192 2193 2194 2195 2196 2197 2198 2199 2200 2201 2202 2203 2204 2205
2206 2207 2208 2209 2210 2211 2212 2213 2214 2215 2216 2217 2218 2219 2220
2221 2222 2223 2224 2225 2226 2227 2228 2229 2230 2231 2232 2479 2480 2481
2482 2483 2484 2485 2486 2487 2488 2489 2490 2491 2492 2503 2504 2505 2506
2507 2508 2509 2510 2511 2512 2513 2514 2515 2516 2517 2518 2519 2520 2521
2522 2523 2524 2525 2526 2527 2528 2529 2530 2531 2532 2533 2534 2535 2536
2537 2538 2539 2540 2541 2542 2543 2544 2545 2546 2547 2548 2549 2550 2580
2581 2582 2583 2584 2585 2586 2587 2588 2589 2590 2591 2592 2593 2594 2595
2596 2597 2598 2675 2676 2677 2678 2679 2680 2681 2682 2683 2684 2685 2686
2687 2688 2689 2690 2691 2692 2693 2694 2695 2756 2757 2758 2759 2760 2761
2762 2763 2764 2765 2766 2767 2784 2785 2786 2787 2788 2789 2790 2791 2792
2793 2794 2795 2796 2797 2798 2799 2800 2801 2802 2803 2804 2805 2806 2807
2808 2809 2810 2811 2812 2813 2814 2815 2816 2817 2818 2819 2820 2821 2822
2823 2824 2825 2826 2827 2828 2829 2830 2831 2832 2833 2834 2835 2836 2837
2845 2846 2847 2848 2849 2850 2851 2852 2853 2854 2855 2856 2857 2858 2859
2860 2861 2862 2863 2864 2865 2866 2867 2868 2869 2870 2871 2872 2873 2874
2875 2876 2877 2918 2919 2920 2921 2922 2923 2924 2925 2926 2927 2928 2929
2930 2931 2932 2933 2934 2935 2936 2937 2938 2939 2940 2941 2942 2943 2944
2945 2946 2947 2948 3015 3016 3017 3018 3019 3020 3021 3022 3023 3024 3025
3026 3027 3028 3029 3030 3031 3032 3033 3034 3035 3169 3170 3171 3172 3173
3174 3175 3176 3177 3178 3179 3180 3181 3182 3183 3184 3185 3186 3187 3188
3189 3190 3191 3192 3193 3194 3195 3196 3197 3198 3199 3200 3201 3202 3203
3204 3205 3206 3207
