[ ConsensusPocket ]
49 50 51 52 53 54 55 56 57 58 59 60 61 62 63
64 65 66 67 68 69 70 71 72 73 74 75 76 77 78
79 80 81 82 83 84 85 86 87 88 89 121 122 123 124
125 126 127 128 129 130 131 132 133 134 135 136 137 138 139
140 141 142 143 144 145 146 147 148 149 150 151 176 177 178
179 180 181 182 183 184 185 186 187 219 220 221 222 223 224
225 245 246 247 248 249 250 251 252 253 254 255 256 257 258
259 260 261 262 263 264 265 266 267 268 269 270 271 272 273
274 275 276 277 278 279 280 281 282 283 284 300 301 302 303
304 305 306 307 308 309 539 540 541 542 543 544 545 546 547
548 549 550 551 552 553 554 555 556 557 558 559 560 561 562
563 564 565 566 567 568 569 570 571 572 573 574 575 576 577
578 579 580 581 582 583 584 585 586 587 588 589 590 591 592
593 594 595 596 597 598 599 600 601 602 603 604 605 606 607
608 609 610 611 612 613 614 615 616 617 618 619 620 621 622
623 624 625 626 627 628 629 630 631 632 633 634 635 636 637
638 639 640 641 939 940 941 942 943 944 945 946 947 948 949
950 951 952 953 954 955 956 957 958 959 960 961 962 963 964
965 966 967 968 969 970 971 989 990 991 992 993 994 995 996
997 998 999 1000 1001 1002 1003 1004 1005 1006 1007 1008 1009 1010 1011
1012 1013 1014 1015 1016 1017 1018 1065 1066 1067 1068 1069 1070 1071 1072
1073 1074 1075 1076 1077 1078 1079 1080 1081 1082 1083 1084 1085 1086 1128
1129 1130 1131 1132 1133 1134 1135 1136 1137 1138 1139 1140 1141 1142 1143
1144 1145 1146 1147 1148 1149 1150 1151 1152 1153 1154 1155 1156 1157 1158
1159 1160 1161 1162 1163 1164 1165 1166 1167 1168 1169 1170 1171 1172 1173
1174 1175 1176 1177 1178 1179 1180 1181 1182 1183 1184 1185 1186 1187 1188
1189 1190 1191 1192 1193 1194 1195 1196 1197 1198 1199 1200 1201 1202 1203
1204 1205 1206 1226 1227 1228 1229 1230 1231 1232 1233 1234 1235 1255 1256
1257 1258 1259 1260 1261 1262 1263 1264 1265 1266 1267 1268 1269 1270 1271
1272 1273 1274 1275 1276 1277 1278 1279 1280 1281 1282 1283 1284 1285 1286
1287 1288 1289 1290 1291 1292 1293 1450 1451 1452 1453 1454 1455 1456 1457
1458 1459 1460 1461 1462 1463 1464 1465 1466 1467 1468 1469 1470 1471 1472
1473 1494 1495 1496 1497 1498 1499 1500 1501 1502 1503 1504 1505 1506 1507
1508 1509 1510 1511 1512 1513 1514 1515 1516 1517 1518 1519 1520 1521 1522
1523 1524 1525 1526 1527 1528 1548 1549 1550 1551 1552 1553 1554 1555 1556
1557 1558 1559 1560 1561 1562 1563 1564 1565 1566 1567 1568 1569 1570 1571
1572 1573 1574 1575 1576 1577 1578 1579 1580 1581 1582 1583 1584 1585 1586
1587 1588 1589 1590 1591 1599 1600 1601 1602 1603 1604 1605 1606 1607 1608
1609 1610 1611 1612 1613 1614 1615 1616 1617 1618 1619 1620 1621 1622 1623
1624 1625 1626 1627 1628 1629 1630 1631 1632 1633 1634 1635 1636 1637 1638
1639 1640 1641 1642 1643 1644 1645 1646 1647 1648 1649 1650 1651 1652 1691
1692 1693 1694 1695 1696 1697 1698 1699 1700 1701 1702 1703 1704 1705 1706
1707 1708 1709 1710 1711 1712 1713 1714 1715 1716 1717 1718 1719 1720 1721
1818 1819 1820 1821 1822 1823 1824 1825 1826 1827 1828 1829 1830 1831 1832
1833 1834 1835 1836 1950 1951 1952 1953 1954 1955 1956 1957 1958 1959 1960
1961 1962 1963 1964 1965 1987 1988 1989 1990 1991 1992 1993 1994 1995 1996
1997 1998 1999 2000 2001 2002 2003 2004 2005 2006 2007 2008 2009 2010 2011
2012 2013 2014 2015 2016 2017 2018 2019 2020 2021 2022 2023 2024 2025 2026
2027 2028 2029 2061 2062 2063 2064 2065 2066 2067 2068 2069 2070 2071 2072
2073 2074 2075 2076 2077 2078 2079 2080 2081 2082 2083 2084 2085 2086 2087
2088 2089 2105 2106 2107 2108 2109 2110 2111 2112 2113 2114 2115 2116 2117
2118 2119 2120 2121 2122 2123 2124 2125 2126 2127 2128 2129 2130 2131 2132
2133 2134 2135 2136 2137 2138 2139 2140 2141 2142 2143 2227 2228 2229 2230
2231 2232 2233 2234 2235 2236 2237 2238 2239 2240 2241 2242 2243 2244 2245
2246 2247 2248 2249 2250 2251 2252 2253 2254 2255 2256 2257 2258 2259 2260
2261 2262 2263 2264 2265 2266 2281 2282 2283 2284 2285 2286 2287 2288 2289
2290 2291 2292 2293 2294 2295 2296 2297 2298 2299 2300 2301 2302 2303 2304
2305 2306 2307 2308 2309 2310 2311 2312 2313 2314 2315 2316 2317 2318 2319
2320 2336 2337 2338 2339 2340 2341 2342 2343 2344 2345 2346 2347 2348 2349
2350 2351 2352 2353 2354 2355 2356 2357 2358 2359 2360 2361 2362 2363 2364
2365 2366 2367 2368 2369 2370 2371 2372 2373 2374 2375 2376 2377 2378 2379
2380 2381 2382 2383 2384 2385 2386 2387 2388 2389 2390 2391 2392 2393 2394
2395 2396 2397 2398 2399 2400 2401 2402 2403 2404 2475 2476 2477 2478 2479
2480 2481 2482 2483 2484 2485 2503 2504 2505 2506 2507 2508 2509 2510 2511
2512 2513 2514 2515 2516 2517 2518 2519 2520 2521 2522 2523 2524 2525 2526
2527 2528 2529 2530 2531 2532 2533 2534 2535 2536 2537 2538 2539 2540 2541
2542 2543 2544 2545 2546 2547 2548 2549 2550 2551 2552 2553 2554 2555 2556
2557 2558 2559 2560 2561 2562 2563 2564 2565 2566 2567 2568 2569 2570 2571
2572 2573 2574 2575 2576 2577 2578 2579 2580 2581 2582 2583 2584 2585 2586
2587 2588 2589 2590 2591 2592 2593 2594 2595 2596 2597 2598 2599 2600 2601
2602 2603 2604 2605 2606 2607 2608 2609 2610 2611 2612 2613 2614 2615 2616
2970 2971 2972 2973 2974 2975 2976 2977 2978 2979 2980 2981 2982 2983 2984
2985 2986 2987 2988 3004 3005 3006 3007 3008 3009 3010 3011 3012 3013 3014
3015 3016 3017 3018 3019 3020 3021 3022 3023 3024 3025 3026 3027 3028 3029
3030 3031 3032 3033 3034 3035 3036 3037 3038 3039 3040 3041 3042 3043 3044
3045 3046 3047 3048 3049 3050 3051 3052 3053 3083 3084 3085 3086 3087 3088
3089 3090 3091 3092 3093 3094 3095 3096 3097 3098 3099 3100 3101 3250 3251
3252 3253 3254 3255 3256 3257 3258 3259 3260 3261 3281 3282 3283 3284 3285
3286 3287 3288 3289 3290 3291 3292 3293 3294 3295 3296 3297 3298 3299 3300
3301 3302 3303 3304 3305 3306 3307 3308 3309 3310 3311 3312 3313 3314 3315
3316 3317 3318 3319 3320 3321 3322 3323 3324 3325 3326 3327 3335 3336 3337
3338 3339 3340 3341 3342 3343 3344 3345 3346 3347 3348 3349 3350 3351 3352
3353 3354 3355 3356 3357 3358 3359 3360 3361 3362 3363 3364 3365 3366 3403
3404 3405 3406 3407 3408 3409 3410 3411 3412 3413 3414 3415 3416 3417 3418
3419 3420 3421 3422 3423 3424 3425 3426 3427 3428 3429 3430 3431 3432 3433
3434 3435 3436 3437 3438 3439 3440 3441 3442 3443 3444 3445 3446 3447 3448
3516 3517 3518 3519 3520 3521 3522 3523 3524 3525 3526 3527 3528 3529 3530
3531 3532 3533 3534 3688 3689 3690 3691 3692 3693 3694 3695 3696 3697 3698
3699 3700 3701 3702 3703 3704 3705 3706 3707 3708 3709 3710 3711 3712 3713
3714 3715 3716 3717 3718
