[ ConsensusPocket ]
40 41 42 43 44 45 46 47 48 49 50 51 52 53 54
55 56 57 58 59 60 61 62 63 64 65 66 67 68 69
70 71 72 107 108 109 110 111 112 113 114 115 116 117 118
119 120 121 122 123 124 125 126 127 128 129 130 131 149 150
151 152 153 154 155 186 187 188 189 190 191 192 193 194 195
196 197 198 199 220 221 222 223 224 225 226 227 228 229 230
231 232 233 234 235 236 237 238 239 240 241 242 243 244 245
246 247 248 249 261 262 263 264 265 266 267 268 269 270 432
433 434 435 436 437 438 439 440 441 442 443 444 445 446 447
448 449 450 451 452 453 454 455 456 457 458 459 460 461 462
463 464 465 466 467 468 469 470 471 472 473 474 475 476 477
478 479 480 481 482 483 484 485 486 487 488 489 490 491 492
493 494 495 496 497 498 499 500 501 502 503 504 505 506 507
508 509 510 511 512 513 514 515 516 517 518 519 520 521 522
590 591 592 593 594 595 596 597 598 599 600 601 602 603 604
605 606 607 608 609 610 611 612 613 614 615 616 617 618 619
620 621 622 623 624 625 626 627 628 629 630 631 632 633 651
652 653 654 655 656 657 658 659 660 661 662 663 664 665 666
667 668 669 670 671 672 673 674 675 676 677 678 679 680 681
682 683 684 685 686 687 688 725 726 727 728 729 730 731 732
733 734 735 736 737 738 739 740 741 742 743 758 759 760 761
762 763 764 765 766 767 768 769 770 771 772 773 774 775 776
777 778 779 780 781 782 783 784 785 786 787 788 789 790 791
792 793 794 795 796 797 798 799 800 801 802 803 804 805 806
807 808 809 810 811 812 813 814 815 816 817 818 819 820 821
822 823 824 825 826 827 828 829 830 831 832 833 834 835 836
837 838 839 840 841 842 860 861 862 863 864 865 866 867 868
869 870 871 872 873 874 875 876 877 878 879 880 897 898 899
900 901 902 903 904 905 906 907 908 909 910 911 912 913 914
915 916 917 918 919 920 921 922 923 924 925 926 927 928 929
930 931 932 933 934 935 936 937 938 1048 1049 1050 1051 1052 1053
1054 1055 1056 1057 1058 1059 1060 1061 1062 1063 1064 1065 1066 1083 1084
1085 1086 1087 1088 1089 1090 1091 1092 1093 1094 1095 1096 1097 1098 1099
1100 1101 1102 1103 1104 1105 1106 1107 1108 1109 1110 1111 1112 1113 1114
1125 1126 1127 1128 1129 1130 1131 1132 1133 1134 1135 1136 1137 1138 1139
1140 1141 1142 1143 1144 1145 1146 1147 1148 1149 1150 1151 1152 1153 1154
1155 1156 1157 1158 1159 1160 1161 1162 1163 1164 1165 1166 1167 1183 1184
1185 1186 1187 1188 1189 1190 1191 1192 1193 1194 1195 1196 1197 1198 1199
1200 1201 1202 1203 1204 1205 1206 1207 1208 1209 1210 1211 1212 1213 1214
1215 1216 1217 1218 1219 1220 1221 1222 1223 1224 1225 1226 1227 1228 1229
1230 1231 1232 1233 1234 1235 1236 1283 1284 1285 1286 1287 1288 1289 1290
1291 1292 1293 1294 1295 1296 1297 1298 1299 1300 1301 1302 1303 1304 1305
1306 1307 1308 1309 1310 1311 1312 1313 1314 1315 1316 1317 1318 1319 1320
1321 1322 1323 1324 1325 1401 1402 1403 1404 1405 1406 1407 1408 1409 1410
1411 1412 1413 1414 1415 1416 1510 1511 1512 1513 1514 1515 1516 1517 1518
1519 1520 1521 1522 1523 1524 1525 1526 1527 1528 1559 1560 1561 1562 1563
1564 1565 1566 1567 1568 1569 1570 1571 1572 1573 1574 1575 1576 1577 1578
1579 1580 1581 1582 1583 1584 1585 1586 1587 1588 1589 1626 1627 1628 1629
1630 1631 1632 1633 1634 1635 1636 1637 1638 1639 1640 1641 1642 1643 1644
1645 1646 1647 1648 1649 1650 1651 1669 1670 1671 1672 1673 1674 1675 1676
1677 1678 1679 1680 1681 1682 1683 1684 1685 1686 1687 1688 1689 1690 1691
1692 1693 1694 1695 1696 1697 1698 1699 1700 1701 1702 1703 1704 1705 1706
1786 1787 1788 1789 1790 1791 1792 1793 1794 1795 1796 1797 1798 1799 1800
1801 1802 1803 1804 1805 1806 1807 1808 1809 1810 1811 1812 1813 1814 1815
1816 1817 1818 1819 1820 1821 1822 1823 1824 1825 1826 1827 1828 1829 1830
1831 1832 1833 1834 1835 1836 1837 1838 1839 1840 1841 1842 1853 1854 1855
1856 1857 1858 1859 1860 1861 1862 1863 1864 1865 1866 1867 1868 1869 1870
1871 1872 1873 1874 1875 1876 1877 1878 1879 1880 1881 1882 1883 1884 1885
1886 1887 1888 1889 1890 1891 1892 1893 1894 1895 1896 1914 1915 1916 1917
1918 1919 1920 1921 1922 1923 1924 1925 1926 1927 1928 1929 1930 1931 1932
1933 1934 1935 1936 1937 1938 1939 1940 1941 1942 1943 1944 1945 1946 1947
1948 1949 1950 1951 1952 1953 1954 1955 1956 1957 1958 1959 1960 1961 1962
1963 1964 1965 1966 1967 1968 1969 1970 1971 1972 1973 1974 1975 1976 1977
1978 1979 1980 1981 1982 1983 1984 2043 2044 2045 2046 2047 2048 2049 2067
2068 2069 2070 2071 2072 2073 2074 2075 2076 2077 2078 2079 2080 2081 2082
2083 2084 2085 2086 2087 2088 2089 2090 2091 2092 2093 2094 2095 2096 2097
2098 2099 2100 2101 2102 2103 2104 2105 2106 2107 2108 2109 2110 2111 2112
2113 2114 2115 2116 2117 2118 2119 2120 2121 2122 2123 2124 2125 2126 2127
2128 2129 2130 2131 2132 2133 2134 2135 2136 2137 2138 2139 2140 2141 2142
2143 2144 2145 2146 2147 2148 2149 2150 2151 2152 2153 2154 2155 2156 2157
2158 2159 2160 2161 2162 2163 2164 2165 2166 2167 2168 2169 2170 2171 2172
2173 2174 2175 2176 2177 2178 2179 2180 2181 2182 2183 2184 2185 2186 2187
2188 2189 2190 2191 2192 2193 2194 2195 2196 2197 2198 2199 2200 2201 2202
2203 2204 2441 2442 2443 2444 2445 2446 2447 2448 2449 2450 2451 2452 2453
2454 2466 2467 2468 2469 2470 2471 2472 2473 2474 2475 2476 2477 2478 2479
2480 2481 2482 2483 2484 2485 2486 2487 2488 2489 2490 2491 2492 2493 2494
2495 2496 2497 2498 2499 2500 2501 2502 2503 2504 2505 2506 2507 2508 2509
2510 2511 2512 2513 2514 2515 2545 2546 2547 2548 2549 2550 2551 2552 2553
2554 2555 2556 2557 2558 2559 2560 2633 2634 2635 2636 2637 2638 2639 2640
2641 2642 2643 2644 2645 2646 2647 2648 2649 2650 2651 2652 2930 2931 2932
2933 2934 2935 2936 2937 2938 2939 2940 2941 2958 2959 2960 2961 2962 2963
2964 2965 2966 2967 2968 2969 2970 2971 2972 2973 2974 2975 2976 2977 2978
2979 2980 2981 2982 2983 2984 2985 2986 2987 2988 2989 2990 2991 2992 2993
2994 2995 2996 2997 2998 2999 3000 3001 3002 3003 3004 3005 3006 3007 3008
3009 3010 3011 3019 3020 3021 3022 3023 3024 3025 3026 3027 3028 3029 3030
3031 3032 3033 3034 3035 3036 3037 3038 3039 3040 3041 3042 3043 3044 3045
3046 3047 3048 3049 3050 3051 3052 3053 3054 3055 3056 3096 3097 3098 3099
3100 3101 3102 3103 3104 3105 3106 3107 3108 3109 3110 3111 3112 3113 3114
3115 3116 3117 3118 3119 3120 3121 3122 3123 3124 3125 3126 3127 3128 3129
3188 3189 3190 3191 3192 3193 3194 3195 3196 3197 3198 3199 3200 3201 3202
3203 3204 3205 3206 3207 3208 3209 3353 3354 3355 3356 3357 3358 3359 3360
3361 3362 3363 3364 3365 3366 3367 3368 3369 3370 3371 3372 3373 3374 3375
3376 3377 3378 3379 3380 3381 3382 3383 3384 3385 3386 3387 3388 3389 3390
3391 3392 3393 3394 3395
