[ ConsensusPocket ]
38 39 40 41 42 43 44 45 46 47 48 49 50 51 52
53 54 55 56 57 58 59 60 61 62 63 64 65 66 67
68 69 70 103 104 105 106 107 108 109 110 111 112 113 114
115 116 117 118 119 120 121 122 123 124 125 126 127 128 144
145 146 147 148 149 150 182 183 184 185 186 187 188 206 207
208 209 210 211 212 213 214 215 216 217 218 219 220 221 222
223 224 225 226 227 228 229 230 231 232 244 245 246 247 248
249 250 251 252 253 393 394 395 396 397 398 399 400 401 402
403 404 405 406 407 408 409 410 411 412 413 414 415 416 417
418 419 420 421 422 423 424 425 426 427 428 429 430 431 432
433 434 435 436 437 438 439 440 441 442 443 444 445 446 447
448 449 450 451 452 453 454 455 456 457 458 459 460 461 462
463 464 465 466 467 468 469 470 471 472 473 474 475 476 477
478 479 480 481 482 483 484 485 486 487 488 489 490 491 492
493 494 495 496 497 498 499 500 739 740 741 742 743 744 745
746 747 748 749 750 751 752 753 754 755 756 757 758 759 760
761 762 763 764 765 766 767 768 769 770 771 772 795 796 797
798 799 800 801 802 803 804 805 806 807 808 809 810 811 812
813 814 815 816 817 818 819 820 821 822 823 824 825 826 827
828 829 830 831 832 876 877 878 879 880 881 882 883 884 885
886 887 888 889 890 891 892 893 894 895 920 921 922 923 924
925 926 927 928 929 930 931 932 933 934 935 936 937 938 939
940 941 942 943 944 945 946 947 948 949 950 951 952 953 954
955 956 957 958 959 960 961 962 963 964 965 966 967 968 969
970 971 972 973 974 975 976 977 978 979 980 981 982 983 984
985 986 987 988 989 990 991 992 993 994 995 996 997 998 999
1000 1001 1002 1003 1011 1012 1013 1014 1015 1016 1017 1018 1019 1020 1021
1022 1023 1024 1025 1026 1027 1028 1029 1044 1045 1046 1047 1048 1049 1050
1051 1052 1053 1054 1055 1056 1057 1058 1059 1060 1061 1062 1063 1064 1065
1066 1067 1068 1069 1070 1071 1072 1073 1074 1075 1076 1077 1078 1079 1080
1081 1082 1083 1084 1085 1086 1087 1088 1089 1090 1091 1092 1093 1258 1259
1260 1261 1262 1263 1264 1265 1266 1267 1268 1269 1270 1271 1272 1273 1295
1296 1297 1298 1299 1300 1301 1302 1303 1304 1305 1306 1307 1308 1309 1310
1311 1312 1313 1314 1315 1316 1317 1318 1319 1320 1321 1322 1323 1324 1325
1326 1327 1328 1329 1347 1348 1349 1350 1351 1352 1353 1354 1355 1356 1357
1358 1359 1360 1361 1362 1363 1364 1365 1366 1367 1368 1369 1370 1371 1372
1373 1374 1375 1376 1377 1378 1379 1380 1381 1382 1383 1384 1385 1386 1387
1388 1389 1390 1391 1392 1393 1394 1410 1411 1412 1413 1414 1415 1416 1417
1418 1419 1420 1421 1422 1423 1424 1425 1426 1427 1428 1429 1430 1431 1432
1433 1434 1435 1436 1437 1438 1439 1440 1441 1442 1443 1444 1445 1446 1447
1448 1449 1450 1451 1452 1453 1454 1517 1518 1519 1520 1521 1522 1523 1524
1525 1526 1527 1528 1529 1530 1531 1532 1533 1534 1535 1536 1537 1538 1539
1540 1541 1542 1543 1544 1545 1546 1547 1548 1549 1550 1551 1552 1553 1554
1555 1556 1557 1606 1607 1608 1609 1610 1611 1612 1613 1614 1615 1616 1617
1618 1619 1620 1621 1622 1623 1624 1730 1731 1732 1733 1734 1735 1736 1737
1738 1739 1740 1741 1742 1743 1744 1745 1746 1747 1748 1749 1790 1791 1792
1793 1794 1795 1796 1797 1798 1799 1800 1801 1802 1803 1804 1805 1806 1807
1808 1809 1810 1811 1812 1813 1814 1815 1816 1817 1818 1819 1820 1821 1822
1823 1824 1825 1869 1870 1871 1872 1873 1874 1875 1876 1877 1878 1879 1880
1881 1882 1883 1884 1885 1886 1887 1888 1889 1890 1891 1892 1893 1894 1917
1918 1919 1920 1921 1922 1923 1924 1925 1926 1927 1928 1929 1930 1931 1932
1933 1934 1935 1936 1937 1938 1939 1940 1941 1942 1943 1944 1945 1946 1947
1948 1949 1950 1951 1952 1953 1954 1955 1956 2025 2026 2027 2028 2029 2030
2031 2032 2033 2034 2035 2036 2037 2038 2039 2040 2041 2042 2043 2044 2045
2046 2047 2048 2049 2050 2051 2052 2053 2054 2055 2056 2057 2058 2059 2060
2061 2062 2063 2064 2065 2066 2067 2068 2069 2070 2071 2072 2073 2074 2075
2076 2077 2078 2079 2080 2081 2082 2083 2084 2097 2098 2099 2100 2101 2102
2103 2104 2105 2106 2107 2108 2109 2110 2111 2112 2113 2114 2115 2116 2117
2118 2119 2120 2121 2122 2123 2124 2125 2126 2127 2128 2129 2130 2131 2132
2133 2134 2135 2136 2137 2138 2139 2140 2141 2142 2143 2144 2145 2146 2147
2148 2149 2150 2151 2163 2164 2165 2166 2167 2168 2169 2170 2171 2172 2173
2174 2175 2176 2177 2178 2179 2180 2181 2182 2183 2184 2185 2186 2187 2188
2189 2190 2191 2192 2193 2194 2195 2196 2197 2198 2199 2200 2201 2202 2203
2204 2205 2206 2207 2208 2209 2210 2211 2212 2213 2214 2215 2216 2217 2218
2219 2220 2221 2222 2223 2224 2225 2226 2227 2228 2229 2230 2231 2232 2233
2276 2277 2278 2279 2280 2281 2282 2283 2284 2285 2286 2299 2300 2301 2302
2303 2304 2305 2306 2307 2308 2309 2310 2311 2312 2313 2314 2315 2316 2317
2318 2319 2320 2321 2322 2323 2324 2325 2326 2327 2328 2329 2330 2331 2332
2333 2334 2335 2336 2337 2338 2339 2340 2341 2342 2343 2344 2345 2346 2347
2348 2349 2350 2351 2352 2353 2354 2355 2356 2357 2358 2359 2360 2361 2362
2363 2364 2365 2366 2367 2368 2369 2370 2371 2372 2373 2374 2375 2376 2377
2378 2379 2380 2381 2382 2383 2384 2385 2386 2387 2388 2389 2390 2391 2392
2393 2394 2395 2396 2397 2398 2399 2400 2401 2402 2403 2404 2405 2406 2407
2408 2409 2410 2411 2412 2413 2414 2415 2416 2417 2418 2419 2420 2421 2422
2423 2424 2425 2426 2427 2722 2723 2724 2725 2726 2727 2728 2729 2730 2731
2732 2733 2734 2735 2736 2737 2738 2739 2740 2741 2742 2743 2744 2745 2770
2771 2772 2773 2774 2775 2776 2777 2778 2779 2780 2781 2782 2783 2784 2785
2786 2787 2788 2789 2790 2791 2792 2793 2794 2795 2796 2797 2798 2799 2800
2801 2802 2803 2804 2805 2806 2807 2808 2809 2810 2811 2812 2813 2814 2815
2816 2817 2818 2819 2820 2821 2822 2823 2824 2854 2855 2856 2857 2858 2859
2860 2861 2862 2863 2864 2865 2866 2867 2868 2869 2870 2871 2872 2963 2964
2965 2966 2967 2968 2969 2970 2971 2972 2973 2974 2975 2976 2977 2978 2979
2980 2981 2982 2983 3050 3051 3052 3053 3054 3055 3056 3057 3058 3059 3060
3061 3081 3082 3083 3084 3085 3086 3087 3088 3089 3090 3091 3092 3093 3094
3095 3096 3097 3098 3099 3100 3101 3102 3103 3104 3105 3106 3107 3108 3109
3110 3111 3112 3113 3114 3115 3116 3117 3118 3119 3120 3121 3122 3123 3124
3125 3126 3127 3128 3129 3130 3131 3139 3140 3141 3142 3143 3144 3145 3146
3147 3148 3149 3150 3151 3152 3153 3154 3155 3156 3157 3158 3159 3160 3161
3162 3163 3164 3165 3166 3167 3168 3198 3199 3200 3201 3202 3203 3204 3205
3206 3207 3208 3209 3210 3211 3212 3213 3214 3215 3216 3217 3218 3219 3220
3221 3222 3223 3224 3225 3226 3227 3228 3229 3298 3299 3300 3301 3302 3303
3304 3305 3306 3307 3308 3309 3310 3311 3463 3464 3465 3466 3467 3468 3469
3470 3471 3472 3473 3474 3475 3476 3477 3478 3479 3480 3481 3482 3483 3484
3485 3486 3487 3488 3489 3490 3491 3492 3493 3494 3495 3496 3497 3498
