[ ConsensusPocket ]
37 38 39 40 41 42 43 44 45 46 47 48 49 50 51
52 53 54 55 56 57 58 59 60 61 62 63 64 65 66
67 114 115 116 117 118 119 120 121 122 123 124 125 126 127
128 129 130 131 132 133 134 135 136 137 138 139 140 141 142
143 161 162 163 164 165 166 167 202 203 204 205 206 207 208
209 210 211 224 225 226 227 228 229 230 231 232 233 234 235
236 237 238 239 240 241 242 243 244 245 246 247 248 249 250
251 252 253 254 255 256 257 258 259 260 285 286 287 288 289
290 291 393 394 395 396 397 398 399 400 401 402 403 404 405
406 407 408 409 410 411 412 413 414 415 416 417 418 419 420
421 422 423 424 425 426 427 428 429 430 431 432 433 434 435
436 437 438 439 440 441 442 443 444 445 446 447 448 449 450
451 452 453 454 455 456 457 458 459 460 461 462 463 464 465
466 467 468 469 470 471 472 473 474 475 476 477 478 479 480
481 482 483 484 485 486 487 488 489 490 491 492 493 494 495
496 497 498 499 500 501 502 503 504 505 506 507 508 509 510
511 765 766 767 768 769 770 771 772 773 774 775 776 777 778
779 780 781 782 783 784 785 786 787 788 789 790 791 792 793
794 795 796 797 798 816 817 818 819 820 821 822 823 824 825
826 827 828 829 830 831 832 833 834 835 836 837 838 839 840
841 842 843 844 845 889 890 891 892 893 894 895 896 897 898
899 911 912 913 914 915 916 917 918 919 920 921 922 923 924
925 926 927 928 929 930 931 932 933 934 935 936 937 938 939
940 941 942 943 944 945 946 947 948 949 950 951 952 953 954
955 956 957 958 959 960 961 962 963 964 965 966 967 968 969
970 971 972 973 974 975 976 977 978 979 980 981 982 983 984
985 986 987 988 989 990 1005 1006 1007 1008 1009 1010 1011 1012 1013
1014 1015 1016 1017 1018 1019 1020 1040 1041 1042 1043 1044 1045 1046 1047
1048 1049 1050 1051 1052 1053 1054 1055 1056 1057 1058 1059 1060 1061 1062
1063 1064 1065 1066 1067 1068 1069 1070 1071 1072 1073 1074 1075 1076 1077
1159 1160 1161 1162 1163 1164 1165 1166 1167 1168 1169 1170 1171 1172 1173
1174 1175 1187 1188 1189 1190 1191 1192 1193 1194 1195 1196 1197 1198 1199
1200 1201 1202 1203 1204 1205 1206 1207 1208 1209 1210 1211 1212 1213 1214
1215 1216 1217 1218 1219 1220 1221 1222 1223 1224 1225 1247 1248 1249 1250
1251 1252 1253 1254 1255 1256 1257 1258 1259 1260 1261 1262 1263 1264 1265
1266 1267 1268 1269 1270 1271 1272 1273 1274 1275 1276 1277 1278 1279 1280
1281 1282 1283 1284 1285 1286 1287 1288 1289 1290 1291 1292 1293 1294 1295
1296 1297 1298 1309 1310 1311 1312 1313 1314 1315 1316 1317 1318 1319 1320
1321 1322 1323 1324 1325 1326 1327 1328 1329 1330 1331 1332 1333 1334 1335
1336 1337 1338 1339 1340 1341 1342 1343 1344 1345 1346 1347 1348 1349 1350
1351 1352 1353 1354 1355 1356 1357 1358 1359 1413 1414 1415 1416 1417 1418
1419 1420 1421 1422 1423 1424 1425 1426 1427 1428 1429 1430 1431 1432 1433
1434 1435 1436 1437 1438 1439 1440 1441 1442 1443 1444 1445 1446 1447 1448
1524 1525 1526 1527 1528 1529 1530 1531 1532 1533 1534 1535 1536 1537 1538
1539 1540 1541 1542 1663 1664 1665 1666 1667 1668 1669 1670 1671 1672 1673
1674 1675 1676 1677 1678 1679 1680 1681 1704 1705 1706 1707 1708 1709 1710
1711 1712 1713 1714 1715 1716 1717 1718 1719 1720 1721 1722 1723 1724 1725
1726 1727 1728 1729 1760 1761 1762 1763 1764 1765 1766 1767 1768 1769 1770
1771 1772 1773 1774 1775 1776 1777 1778 1779 1780 1781 1782 1783 1784 1785
1801 1802 1803 1804 1805 1806 1807 1808 1809 1810 1811 1812 1813 1814 1815
1816 1817 1818 1819 1820 1821 1822 1823 1824 1825 1826 1827 1828 1829 1830
1831 1832 1833 1834 1835 1836 1837 1838 1839 1840 1918 1919 1920 1921 1922
1923 1924 1925 1926 1927 1928 1929 1930 1931 1932 1933 1934 1935 1936 1937
1938 1939 1940 1941 1942 1943 1944 1945 1946 1947 1948 1949 1950 1951 1952
1953 1954 1955 1956 1957 1958 1959 1960 1961 1962 1963 1964 1979 1980 1981
1982 1983 1984 1985 1986 1987 1988 1989 1990 1991 1992 1993 1994 1995 1996
1997 1998 1999 2000 2001 2002 2003 2004 2005 2006 2007 2008 2009 2010 2011
2012 2013 2014 2015 2016 2017 2018 2019 2020 2021 2022 2023 2024 2025 2026
2027 2039 2040 2041 2042 2043 2044 2045 2046 2047 2048 2049 2050 2051 2052
2053 2054 2055 2056 2057 2058 2059 2060 2061 2062 2063 2064 2065 2066 2067
2068 2069 2070 2071 2072 2073 2074 2075 2076 2077 2078 2079 2080 2081 2082
2083 2084 2085 2086 2087 2088 2089 2090 2091 2092 2093 2094 2095 2096 2097
2098 2099 2100 2101 2102 2103 2104 2105 2106 2150 2151 2152 2153 2154 2155
2156 2157 2158 2159 2160 2161 2162 2163 2164 2165 2166 2167 2168 2183 2184
2185 2186 2187 2188 2189 2190 2191 2192 2193 2194 2195 2196 2197 2198 2199
2200 2201 2202 2203 2204 2205 2206 2207 2208 2209 2210 2211 2212 2213 2214
2215 2216 2217 2218 2219 2220 2221 2222 2223 2224 2225 2226 2227 2228 2229
2230 2231 2232 2233 2234 2235 2236 2237 2238 2239 2240 2241 2242 2243 2244
2245 2246 2247 2248 2249 2250 2251 2252 2253 2254 2255 2256 2257 2258 2259
2260 2261 2262 2263 2264 2265 2266 2267 2268 2269 2270 2271 2272 2273 2274
2275 2276 2277 2278 2279 2280 2281 2282 2283 2284 2285 2286 2287 2288 2289
2290 2291 2292 2293 2294 2295 2296 2297 2298 2299 2300 2301 2302 2303 2304
2305 2685 2686 2687 2688 2689 2690 2691 2692 2693 2694 2705 2706 2707 2708
2709 2710 2711 2712 2713 2714 2715 2716 2717 2718 2719 2720 2721 2722 2723
2724 2725 2726 2727 2728 2729 2730 2731 2732 2733 2734 2735 2736 2737 2738
2739 2740 2741 2742 2743 2744 2745 2746 2747 2748 2749 2750 2751 2752 2753
2754 2755 2756 2757 2758 2786 2787 2788 2789 2790 2791 2792 2793 2794 2795
2796 2797 2798 2799 2800 2801 2802 2803 2804 2805 2889 2890 2891 2892 2893
2894 2895 2896 2897 2898 2899 2900 2901 2902 2903 2904 2905 2906 2907 2984
2985 2986 2987 2988 2989 2990 2991 2992 2993 2994 2995 3015 3016 3017 3018
3019 3020 3021 3022 3023 3024 3025 3026 3027 3028 3029 3030 3031 3032 3033
3034 3035 3036 3037 3038 3039 3040 3041 3042 3043 3044 3045 3046 3047 3048
3049 3050 3051 3052 3053 3054 3055 3056 3064 3065 3066 3067 3068 3069 3070
3071 3072 3073 3074 3075 3076 3077 3078 3079 3080 3081 3082 3083 3084 3085
3086 3087 3088 3089 3090 3091 3092 3093 3094 3095 3096 3097 3098 3128 3129
3130 3131 3132 3133 3134 3135 3136 3137 3138 3139 3140 3141 3142 3143 3144
3145 3146 3147 3148 3149 3150 3151 3152 3153 3154 3155 3156 3157 3158 3218
3219 3220 3221 3222 3223 3224 3225 3226 3227 3228 3229 3230 3231 3364 3365
3366 3367 3368 3369 3370 3371 3372 3373 3374 3375 3376 3377 3378 3379 3380
3381 3382 3383 3384 3385 3386 3387 3388 3389 3390 3391 3392 3393 3394 3395
3396 3397 3398 3399 3400 3401 3402 3403
