ligand_acpype_input.pdb
    43
   2.7960000   8.3960000  11.2290000   2.4000000   7.0220000  11.7250000
   3.5600000   6.1480000  11.3350000   4.7370000   7.1100000  11.4020000
   5.8230000   6.7280000  10.4400000   5.3380000   6.8770000   9.1240000
   5.8330000   5.9150000   7.9540000   7.4050000   6.1550000   8.0000000
   8.4690000   5.2450000   7.2340000   8.5160000   5.8570000   5.7870000
   8.2740000   5.0070000   4.4990000   8.6810000   5.8760000   3.3480000
   4.1910000   8.3930000  11.0640000   5.5160000   4.5100000   8.2950000
   5.2800000   6.4450000   6.6520000   9.8130000   5.4430000   7.8850000
   7.9510000   3.8400000   7.2130000   9.1310000   3.7870000   4.6050000
   6.8070000   4.6730000   4.4800000   2.1840000   8.7260000   9.9370000
   2.5220000   8.2520000   8.7210000   1.7830000   8.7870000   7.7530000
   0.9420000   9.6450000   8.3540000   1.2040000   9.6070000   9.7560000
   0.5330000  10.3670000  10.6160000  -0.3970000  11.1700000  10.1350000
  -0.7180000  11.2790000   8.8240000  -0.0840000  10.5440000   7.9070000
  -0.4030000  10.6730000   6.6020000   2.2700000   7.0890000  13.1450000
   3.7110000   5.0790000  12.2610000   2.5310000   9.0670000  11.8930000
   1.5690000   6.7300000  11.2950000   3.4840000   5.7950000  10.4240000
   5.1180000   7.1620000  12.3040000   6.6050000   7.3070000  10.5590000
   6.0900000   5.7950000  10.5780000   3.3030000   7.5600000   8.5370000
  -0.9490000  11.7860000  10.7980000  -1.1060000  11.3120000   6.3240000
   0.0670000  10.1280000   5.9230000   1.5080000   7.6640000  13.3690000
   4.5320000   4.5880000  12.0500000
