[ ConsensusPocket ]
36 37 38 39 40 41 42 43 44 45 46 47 48 49 50
51 52 53 54 55 56 57 58 59 60 61 95 96 97 98
99 100 101 102 103 104 105 106 107 108 109 110 111 112 113
114 115 116 117 118 119 120 121 122 123 124 125 126 127 128
129 130 131 132 133 134 135 150 151 152 153 154 155 156 157
158 159 160 161 162 163 164 200 201 202 203 204 205 206 207
208 209 210 226 227 228 229 230 231 232 233 234 235 236 237
238 239 240 241 242 243 244 245 246 247 248 249 250 251 252
253 254 255 256 257 258 259 260 261 262 263 264 289 290 291
292 293 294 295 296 297 298 431 432 433 434 435 436 437 438
439 440 441 442 443 444 445 446 447 448 449 450 451 452 453
454 455 456 457 458 459 460 461 462 463 464 465 466 467 468
469 470 471 472 473 474 475 476 477 478 479 480 481 482 483
484 485 486 487 488 489 490 491 492 493 494 495 496 497 498
499 500 501 502 503 504 505 506 507 508 509 510 511 512 513
514 515 516 517 518 519 520 521 522 523 524 525 526 527 528
529 530 531 532 533 534 535 536 783 784 785 786 787 788 789
790 791 792 793 794 795 796 797 798 799 800 801 802 803 804
805 806 807 808 809 810 811 812 813 814 815 816 824 825 826
827 828 829 830 831 832 833 834 835 836 837 838 839 840 841
842 843 844 845 846 847 848 849 850 851 852 853 854 855 856
857 858 859 860 861 901 902 903 904 905 906 907 908 909 910
911 912 913 914 915 916 939 940 941 942 943 944 945 946 947
948 949 950 951 952 953 954 955 956 957 958 959 960 961 962
963 964 965 966 967 968 969 970 971 972 973 974 975 976 977
978 979 980 981 982 983 984 985 986 987 988 989 990 991 992
993 994 995 996 997 998 999 1000 1001 1002 1003 1004 1005 1006 1007
1008 1009 1010 1011 1012 1013 1014 1015 1016 1017 1018 1019 1020 1021 1039
1040 1041 1042 1043 1044 1045 1046 1047 1048 1049 1050 1051 1052 1053 1054
1055 1056 1057 1074 1075 1076 1077 1078 1079 1080 1081 1082 1083 1084 1085
1086 1087 1088 1089 1090 1091 1092 1093 1094 1095 1096 1097 1098 1099 1100
1101 1102 1103 1104 1105 1106 1107 1108 1109 1110 1111 1112 1113 1114 1115
1116 1117 1118 1119 1120 1121 1213 1214 1215 1216 1217 1218 1219 1220 1221
1222 1223 1224 1225 1226 1227 1228 1229 1230 1231 1232 1233 1254 1255 1256
1257 1258 1259 1260 1261 1262 1263 1264 1265 1266 1267 1268 1269 1270 1271
1272 1273 1274 1275 1276 1277 1278 1279 1280 1281 1282 1283 1284 1285 1286
1287 1288 1289 1290 1291 1292 1312 1313 1314 1315 1316 1317 1318 1319 1320
1321 1322 1323 1324 1325 1326 1327 1328 1329 1330 1331 1332 1333 1334 1335
1336 1337 1338 1339 1340 1341 1342 1343 1344 1345 1346 1347 1348 1349 1350
1351 1352 1353 1354 1355 1370 1371 1372 1373 1374 1375 1376 1377 1378 1379
1380 1381 1382 1383 1384 1385 1386 1387 1388 1389 1390 1391 1392 1393 1394
1395 1396 1397 1398 1399 1400 1401 1402 1403 1404 1405 1406 1407 1408 1409
1410 1411 1412 1413 1414 1415 1416 1417 1418 1419 1420 1421 1422 1423 1424
1425 1426 1427 1428 1429 1430 1431 1488 1489 1490 1491 1492 1493 1494 1495
1496 1497 1498 1499 1500 1501 1502 1503 1504 1505 1506 1507 1508 1509 1510
1511 1512 1513 1514 1515 1516 1517 1518 1519 1520 1521 1522 1523 1524 1525
1583 1584 1585 1586 1587 1588 1589 1590 1591 1592 1593 1594 1595 1596 1597
1598 1599 1600 1601 1602 1603 1705 1706 1707 1708 1709 1710 1711 1712 1713
1714 1715 1716 1717 1718 1719 1720 1761 1762 1763 1764 1765 1766 1767 1768
1769 1770 1771 1772 1773 1774 1775 1776 1777 1778 1779 1780 1781 1782 1783
1784 1785 1786 1787 1788 1789 1790 1791 1792 1793 1828 1829 1830 1831 1832
1833 1834 1835 1836 1837 1838 1839 1840 1841 1842 1843 1844 1845 1846 1847
1848 1849 1850 1851 1852 1853 1864 1865 1866 1867 1868 1869 1870 1871 1872
1873 1874 1875 1876 1877 1878 1879 1880 1881 1882 1883 1884 1885 1886 1887
1888 1889 1890 1891 1892 1893 1894 1895 1896 1897 1898 1899 1900 1901 1902
1903 1992 1993 1994 1995 1996 1997 1998 1999 2000 2001 2002 2003 2004 2005
2006 2007 2008 2009 2010 2011 2012 2013 2014 2015 2016 2017 2018 2019 2020
2021 2022 2023 2024 2025 2026 2027 2028 2029 2030 2031 2032 2033 2034 2035
2036 2037 2038 2039 2040 2041 2042 2043 2044 2045 2046 2047 2048 2063 2064
2065 2066 2067 2068 2069 2070 2071 2072 2073 2074 2075 2076 2077 2078 2079
2080 2081 2082 2083 2084 2085 2086 2087 2088 2089 2090 2091 2092 2093 2094
2095 2096 2097 2098 2099 2100 2101 2102 2103 2104 2105 2106 2107 2108 2109
2110 2111 2112 2113 2114 2115 2116 2117 2118 2119 2120 2121 2122 2138 2139
2140 2141 2142 2143 2144 2145 2146 2147 2148 2149 2150 2151 2152 2153 2154
2155 2156 2157 2158 2159 2160 2161 2162 2163 2164 2165 2166 2167 2168 2169
2170 2171 2172 2173 2174 2175 2176 2177 2178 2179 2180 2181 2182 2183 2184
2185 2186 2187 2188 2189 2190 2191 2192 2193 2194 2195 2196 2197 2198 2199
2200 2201 2202 2203 2204 2205 2206 2207 2322 2323 2324 2325 2326 2327 2328
2329 2330 2331 2332 2355 2356 2357 2358 2359 2360 2361 2362 2363 2364 2365
2366 2367 2368 2369 2370 2371 2372 2373 2374 2375 2376 2377 2378 2379 2380
2381 2382 2383 2384 2385 2386 2387 2388 2389 2390 2391 2392 2393 2394 2395
2396 2397 2398 2399 2400 2401 2402 2403 2404 2405 2406 2407 2408 2409 2410
2411 2412 2413 2414 2415 2416 2417 2418 2419 2420 2421 2422 2423 2424 2425
2426 2427 2428 2429 2430 2431 2432 2433 2434 2435 2436 2437 2438 2439 2440
2441 2442 2443 2444 2445 2446 2447 2448 2449 2450 2451 2452 2453 2454 2455
2456 2457 2458 2459 2460 2461 2462 2463 2464 2465 2466 2467 2468 2469 2470
2471 2472 2473 2474 2475 2476 2477 2478 2479 2480 2481 2482 2483 2484 2485
2486 2487 2696 2697 2698 2699 2700 2701 2702 2703 2704 2705 2706 2707 2708
2709 2725 2726 2727 2728 2729 2730 2731 2732 2733 2734 2735 2736 2737 2738
2739 2740 2741 2742 2743 2744 2745 2746 2747 2748 2749 2750 2751 2752 2753
2754 2755 2756 2757 2758 2759 2760 2761 2762 2763 2764 2765 2766 2767 2768
2769 2770 2771 2772 2773 2774 2804 2805 2806 2807 2808 2809 2810 2811 2812
2813 2814 2815 2816 2817 2818 2819 2908 2909 2910 2911 2912 2913 2914 2915
2916 2917 2918 2919 2920 2921 2922 2923 2924 2925 2926 2927 2928 2990 2991
2992 2993 2994 2995 2996 2997 2998 2999 3000 3001 3013 3014 3015 3016 3017
3018 3019 3020 3021 3022 3023 3024 3025 3026 3027 3028 3029 3030 3031 3032
3033 3034 3035 3036 3037 3038 3039 3040 3041 3042 3043 3044 3045 3046 3047
3048 3049 3050 3051 3052 3053 3054 3055 3056 3057 3058 3059 3060 3061 3062
3063 3064 3065 3073 3074 3075 3076 3077 3078 3079 3080 3081 3082 3083 3084
3085 3086 3087 3088 3089 3090 3091 3092 3093 3094 3095 3096 3097 3098 3099
3100 3101 3102 3103 3104 3105 3106 3107 3146 3147 3148 3149 3150 3151 3152
3153 3154 3155 3156 3157 3158 3159 3160 3161 3162 3163 3164 3165 3166 3167
3168 3169 3170 3171 3172 3173 3174 3175 3176 3177 3178 3179 3180 3181 3182
3183 3235 3236 3237 3238 3239 3240 3241 3242 3243 3244 3245 3246 3247 3248
3519 3520 3521 3522 3523 3524 3525 3526 3527 3528 3529 3530 3531 3532 3533
3534 3535 3536 3537 3538 3539 3540 3541 3542 3543 3544 3545 3546 3547 3548
3549 3550 3551 3552 3553 3554 3555 3556 3557
