[ ConsensusPocket ]
40 41 42 43 44 45 46 47 48 49 50 51 52 53 54
55 56 57 58 59 60 61 62 63 64 65 66 67 68 69
70 71 72 99 100 101 102 103 104 105 106 107 108 109 110
111 112 113 114 115 116 117 118 119 120 121 122 123 124 125
126 127 128 129 130 131 143 144 145 146 147 148 149 295 296
297 298 299 300 301 313 314 315 316 317 318 319 320 321 322
323 324 325 326 327 328 329 330 331 332 333 334 335 336 337
338 339 340 341 342 343 344 345 360 361 362 363 364 365 366
367 368 369 586 587 588 589 590 591 592 593 594 595 596 597
598 599 600 601 602 603 604 605 606 607 608 609 610 611 612
613 614 615 616 617 618 619 620 621 622 623 624 625 626 627
628 629 630 631 632 633 634 635 636 637 638 639 640 641 642
643 644 645 646 647 648 649 650 651 652 653 654 655 656 657
658 659 660 661 662 663 664 665 666 667 668 669 670 671 672
673 674 675 676 677 678 679 680 681 682 683 684 685 686 687
688 689 690 691 692 693 694 695 696 697 698 699 700 701 702
703 704 705 706 707 708 958 959 960 961 962 963 964 965 966
967 968 969 970 971 972 973 974 975 976 977 978 979 980 981
982 983 984 985 986 987 988 989 990 991 992 993 1009 1010 1011
1012 1013 1014 1015 1016 1017 1018 1019 1020 1021 1022 1023 1024 1025 1026
1027 1028 1029 1030 1031 1032 1033 1034 1035 1036 1037 1038 1039 1040 1041
1042 1077 1078 1079 1080 1081 1082 1083 1084 1085 1086 1087 1088 1089 1090
1091 1092 1093 1094 1095 1120 1121 1122 1123 1124 1125 1126 1127 1128 1129
1130 1131 1132 1133 1134 1135 1136 1137 1138 1139 1140 1141 1142 1143 1144
1145 1146 1147 1148 1149 1150 1151 1152 1153 1154 1155 1156 1157 1158 1159
1160 1161 1162 1163 1164 1165 1166 1167 1168 1169 1170 1171 1172 1173 1174
1175 1176 1177 1178 1179 1180 1181 1182 1183 1184 1185 1186 1187 1188 1189
1190 1191 1192 1193 1194 1195 1196 1197 1198 1213 1214 1215 1216 1217 1218
1219 1220 1221 1222 1223 1224 1225 1226 1227 1228 1229 1230 1231 1251 1252
1253 1254 1255 1256 1257 1258 1259 1260 1261 1262 1263 1264 1265 1266 1267
1268 1269 1270 1271 1272 1273 1274 1275 1276 1277 1278 1279 1280 1281 1282
1283 1284 1285 1286 1287 1288 1289 1290 1291 1292 1293 1294 1295 1296 1297
1366 1367 1368 1369 1370 1371 1372 1373 1374 1375 1376 1377 1378 1379 1380
1381 1382 1383 1384 1385 1396 1397 1398 1399 1400 1401 1402 1403 1404 1405
1406 1407 1408 1409 1410 1411 1412 1413 1414 1415 1416 1417 1418 1419 1420
1421 1422 1423 1424 1425 1426 1427 1428 1429 1430 1445 1446 1447 1448 1449
1450 1451 1452 1453 1454 1455 1456 1457 1458 1459 1460 1461 1462 1463 1464
1465 1466 1467 1468 1469 1470 1471 1472 1473 1474 1475 1476 1477 1478 1479
1480 1481 1482 1483 1484 1485 1486 1487 1488 1489 1490 1502 1503 1504 1505
1506 1507 1508 1509 1510 1511 1512 1513 1514 1515 1516 1517 1518 1519 1520
1521 1522 1523 1524 1525 1526 1527 1528 1529 1530 1531 1532 1533 1534 1535
1536 1537 1538 1539 1540 1541 1542 1543 1544 1545 1546 1547 1548 1549 1550
1551 1552 1553 1554 1555 1556 1557 1558 1559 1560 1561 1562 1609 1610 1611
1612 1613 1614 1615 1616 1617 1618 1619 1620 1621 1622 1623 1624 1625 1626
1627 1628 1629 1630 1631 1632 1633 1634 1635 1636 1637 1638 1639 1640 1641
1723 1724 1725 1726 1727 1728 1729 1730 1731 1732 1733 1734 1735 1736 1737
1738 1739 1740 1741 1859 1860 1861 1862 1863 1864 1865 1866 1867 1868 1869
1870 1871 1872 1873 1874 1875 1876 1877 1916 1917 1918 1919 1920 1921 1922
1923 1924 1925 1926 1927 1928 1929 1930 1931 1932 1933 1934 1935 1936 1937
1938 1939 1940 1941 1942 1943 1944 1945 1946 1988 1989 1990 1991 1992 1993
1994 1995 1996 1997 1998 1999 2000 2001 2002 2003 2004 2005 2006 2007 2008
2009 2010 2011 2034 2035 2036 2037 2038 2039 2040 2041 2042 2043 2044 2045
2046 2047 2048 2049 2050 2051 2052 2053 2054 2055 2056 2057 2058 2059 2060
2061 2062 2063 2064 2065 2066 2067 2068 2069 2070 2071 2072 2073 2167 2168
2169 2170 2171 2172 2173 2174 2175 2176 2177 2178 2179 2180 2181 2182 2183
2184 2185 2186 2187 2188 2189 2190 2191 2192 2193 2194 2195 2196 2197 2198
2199 2200 2201 2202 2203 2204 2205 2206 2231 2232 2233 2234 2235 2236 2237
2238 2239 2240 2241 2242 2243 2244 2245 2246 2247 2248 2249 2250 2251 2252
2253 2254 2255 2256 2257 2258 2259 2260 2261 2262 2263 2264 2265 2266 2267
2268 2269 2270 2271 2272 2273 2274 2275 2276 2277 2278 2279 2280 2281 2282
2307 2308 2309 2310 2311 2312 2313 2314 2315 2316 2317 2318 2319 2320 2321
2322 2323 2324 2325 2326 2327 2328 2329 2330 2331 2332 2333 2334 2335 2336
2337 2338 2339 2340 2341 2342 2343 2344 2345 2346 2347 2348 2349 2350 2351
2352 2353 2354 2355 2356 2357 2358 2359 2360 2361 2362 2363 2407 2408 2409
2410 2411 2412 2413 2414 2415 2416 2417 2418 2419 2420 2421 2422 2423 2424
2425 2426 2443 2444 2445 2446 2447 2448 2449 2450 2451 2452 2453 2454 2455
2456 2457 2458 2459 2460 2461 2462 2463 2464 2465 2466 2467 2468 2469 2470
2471 2472 2473 2474 2475 2476 2477 2478 2479 2480 2481 2482 2483 2484 2485
2486 2487 2488 2489 2490 2491 2492 2493 2494 2495 2496 2497 2498 2499 2500
2501 2502 2503 2504 2505 2506 2507 2508 2509 2510 2511 2512 2513 2514 2515
2516 2517 2518 2519 2520 2521 2522 2523 2524 2525 2526 2527 2528 2529 2530
2531 2532 2533 2534 2535 2536 2537 2538 2539 2540 2541 2542 2543 2544 2545
2546 2547 2548 2549 2550 2551 2552 2553 2554 2555 2556 2557 2558 2559 2560
2561 2562 2563 2564 2565 2566 2567 2568 2569 2570 2571 2572 2573 2857 2858
2859 2860 2861 2862 2863 2864 2865 2866 2867 2868 2869 2870 2871 2872 2873
2874 2875 2895 2896 2897 2898 2899 2900 2901 2902 2903 2904 2905 2906 2907
2908 2909 2910 2911 2912 2913 2914 2915 2916 2917 2918 2919 2920 2921 2922
2923 2924 2925 2926 2927 2928 2929 2930 2931 2932 2933 2934 2935 2936 2937
2938 2939 2940 2941 2942 2972 2973 2974 2975 2976 2977 2978 2979 2980 2981
2982 2983 2984 2985 2986 2987 2988 2989 2990 3198 3199 3200 3201 3202 3203
3204 3205 3206 3207 3208 3209 3226 3227 3228 3229 3230 3231 3232 3233 3234
3235 3236 3237 3238 3239 3240 3241 3242 3243 3244 3245 3246 3247 3248 3249
3250 3251 3252 3253 3254 3255 3256 3257 3258 3259 3260 3261 3262 3263 3264
3265 3266 3267 3268 3269 3270 3271 3272 3273 3274 3275 3276 3277 3288 3289
3290 3291 3292 3293 3294 3295 3296 3297 3298 3299 3300 3301 3302 3303 3304
3305 3306 3307 3308 3309 3310 3311 3312 3313 3314 3315 3316 3317 3318 3319
3320 3321 3322 3323 3324 3325 3360 3361 3362 3363 3364 3365 3366 3367 3368
3369 3370 3371 3372 3373 3374 3375 3376 3377 3378 3379 3380 3381 3382 3383
3384 3385 3386 3387 3388 3389 3390 3455 3456 3457 3458 3459 3460 3461 3462
3463 3464 3465 3466 3467 3468 3635 3636 3637 3638 3639 3640 3641 3642 3643
3644 3645 3646 3647 3648 3649 3650 3651 3652 3653 3654 3655 3656 3657 3658
3659 3660 3661 3662 3663 3664 3665 3666 3667 3668 3669 3670 3671 3672
