[ ConsensusPocket ]
34 35 36 37 38 39 40 41 42 43 44 45 46 47 48
49 50 51 52 53 54 55 56 57 58 59 89 90 91 92
93 94 95 96 97 98 99 100 101 102 103 104 105 106 107
108 109 110 111 112 113 114 132 133 134 135 136 137 138 187
188 189 190 191 192 193 218 219 220 221 222 223 224 225 226
227 228 229 230 231 232 233 234 235 236 237 238 239 240 241
242 243 244 245 246 247 248 249 250 275 276 277 278 279 280
281 369 370 371 372 373 374 375 376 377 378 379 380 381 382
383 384 385 386 387 388 389 390 391 392 393 394 395 396 397
398 399 400 401 402 403 404 405 406 407 408 409 410 411 412
413 414 415 416 417 418 419 420 421 422 423 424 425 426 427
428 429 430 431 432 433 434 435 436 437 438 439 440 441 442
443 444 445 446 447 448 449 450 451 452 453 454 455 456 457
458 459 460 461 462 463 464 465 466 467 468 469 470 471 472
473 474 475 728 729 730 731 732 733 734 735 736 737 738 739
740 741 742 743 744 745 746 747 748 749 750 751 752 753 754
755 756 757 758 776 777 778 779 780 781 782 783 784 785 786
787 788 789 790 791 792 793 794 795 796 797 798 799 800 801
802 803 804 805 806 807 808 809 810 852 853 854 855 856 857
858 859 860 861 862 863 864 865 890 891 892 893 894 895 896
897 898 899 900 901 902 903 904 905 906 907 908 909 910 911
912 913 914 915 916 917 918 919 920 921 922 923 924 925 926
927 928 929 930 931 932 933 934 935 936 937 938 939 940 941
942 943 944 945 946 947 948 949 950 951 952 953 954 955 956
957 958 959 960 961 962 963 964 965 966 967 987 988 989 990
991 992 993 994 995 996 997 998 999 1000 1001 1002 1003 1004 1005
1006 1024 1025 1026 1027 1028 1029 1030 1031 1032 1033 1034 1035 1036 1037
1038 1039 1040 1041 1042 1043 1044 1045 1046 1047 1048 1049 1050 1051 1128
1129 1130 1131 1132 1133 1134 1135 1136 1137 1138 1139 1140 1141 1142 1143
1144 1145 1146 1157 1158 1159 1160 1161 1162 1163 1164 1165 1166 1167 1168
1169 1170 1171 1172 1173 1174 1175 1176 1177 1178 1179 1180 1181 1182 1183
1184 1185 1186 1187 1188 1189 1190 1191 1192 1193 1194 1209 1210 1211 1212
1213 1214 1215 1216 1217 1218 1219 1220 1221 1222 1223 1224 1225 1226 1227
1228 1229 1230 1231 1232 1233 1234 1235 1236 1237 1238 1239 1240 1241 1242
1243 1244 1245 1246 1247 1248 1249 1250 1273 1274 1275 1276 1277 1278 1279
1280 1281 1282 1283 1284 1285 1286 1287 1288 1289 1290 1291 1292 1293 1294
1295 1296 1297 1298 1299 1300 1301 1302 1303 1304 1305 1306 1307 1308 1309
1310 1311 1312 1313 1314 1315 1316 1317 1318 1319 1320 1321 1322 1323 1324
1325 1326 1327 1328 1329 1330 1331 1332 1333 1334 1335 1336 1385 1386 1387
1388 1389 1390 1391 1392 1393 1394 1395 1396 1397 1398 1399 1400 1401 1402
1403 1404 1405 1406 1407 1408 1409 1410 1411 1412 1413 1414 1415 1416 1417
1418 1419 1420 1421 1422 1423 1424 1498 1499 1500 1501 1502 1503 1504 1505
1506 1507 1508 1509 1510 1511 1512 1513 1514 1515 1516 1639 1640 1641 1642
1643 1644 1645 1646 1647 1648 1649 1650 1651 1652 1653 1654 1655 1656 1657
1685 1686 1687 1688 1689 1690 1691 1692 1693 1694 1695 1696 1697 1698 1699
1700 1701 1702 1703 1704 1705 1706 1707 1708 1709 1710 1711 1712 1713 1714
1715 1716 1717 1718 1760 1761 1762 1763 1764 1765 1766 1767 1768 1769 1770
1771 1772 1773 1774 1775 1776 1777 1778 1779 1780 1781 1782 1783 1791 1792
1793 1794 1795 1796 1797 1798 1799 1800 1801 1802 1803 1804 1805 1806 1807
1808 1809 1810 1811 1812 1813 1814 1815 1816 1817 1818 1819 1820 1821 1822
1823 1824 1825 1826 1827 1828 1829 1830 1906 1907 1908 1909 1910 1911 1912
1913 1914 1915 1916 1917 1918 1919 1920 1921 1922 1923 1924 1925 1926 1927
1928 1929 1930 1931 1932 1933 1934 1935 1936 1937 1938 1939 1940 1941 1942
1943 1944 1945 1946 1947 1948 1949 1950 1951 1952 1953 1954 1955 1956 1957
1958 1959 1960 1973 1974 1975 1976 1977 1978 1979 1980 1981 1982 1983 1984
1985 1986 1987 1988 1989 1990 1991 1992 1993 1994 1995 1996 1997 1998 1999
2000 2001 2002 2003 2004 2005 2006 2007 2008 2009 2010 2011 2012 2013 2014
2015 2016 2017 2018 2019 2020 2021 2022 2023 2024 2047 2048 2049 2050 2051
2052 2053 2054 2055 2056 2057 2058 2059 2060 2061 2062 2063 2064 2065 2066
2067 2068 2069 2070 2071 2072 2073 2074 2075 2076 2077 2078 2079 2080 2081
2082 2083 2084 2085 2086 2087 2088 2089 2090 2091 2092 2093 2094 2095 2096
2097 2098 2099 2100 2101 2102 2103 2104 2105 2106 2107 2108 2109 2110 2111
2112 2113 2114 2115 2116 2117 2144 2145 2146 2147 2148 2149 2150 2173 2174
2175 2176 2177 2178 2179 2180 2181 2182 2183 2184 2185 2186 2187 2188 2189
2190 2191 2192 2193 2194 2195 2196 2197 2198 2199 2200 2201 2202 2203 2204
2205 2206 2207 2208 2209 2210 2211 2212 2213 2214 2215 2216 2217 2218 2219
2220 2221 2222 2223 2224 2225 2226 2227 2228 2229 2230 2231 2232 2233 2234
2235 2236 2237 2238 2239 2240 2241 2242 2243 2244 2245 2246 2247 2248 2249
2250 2251 2252 2253 2254 2255 2256 2257 2258 2259 2260 2261 2262 2263 2264
2265 2266 2267 2268 2269 2270 2271 2272 2273 2274 2275 2276 2277 2278 2279
2280 2281 2282 2283 2284 2285 2286 2287 2288 2289 2290 2291 2292 2293 2294
2295 2657 2658 2659 2660 2661 2662 2663 2664 2665 2666 2667 2668 2669 2670
2671 2672 2673 2674 2675 2687 2688 2689 2690 2691 2692 2693 2694 2695 2696
2697 2698 2699 2700 2701 2702 2703 2704 2705 2706 2707 2708 2709 2710 2711
2712 2713 2714 2715 2716 2717 2718 2719 2720 2721 2722 2723 2724 2725 2726
2727 2728 2729 2730 2731 2732 2733 2734 2735 2736 2766 2767 2768 2769 2770
2771 2772 2773 2774 2775 2776 2777 2778 2779 2780 2781 2782 2783 2784 3003
3004 3005 3006 3007 3008 3009 3010 3011 3012 3013 3014 3015 3016 3017 3018
3019 3020 3021 3022 3076 3077 3078 3079 3080 3081 3082 3083 3084 3085 3086
3087 3104 3105 3106 3107 3108 3109 3110 3111 3112 3113 3114 3115 3116 3117
3118 3119 3120 3121 3122 3123 3124 3125 3126 3127 3128 3129 3130 3131 3132
3133 3134 3135 3136 3137 3138 3139 3140 3141 3142 3143 3144 3145 3146 3147
3148 3149 3150 3151 3152 3153 3154 3162 3163 3164 3165 3166 3167 3168 3169
3170 3171 3172 3173 3174 3175 3176 3177 3178 3179 3180 3181 3182 3183 3184
3185 3186 3187 3188 3189 3190 3191 3237 3238 3239 3240 3241 3242 3243 3244
3245 3246 3247 3248 3249 3250 3251 3252 3253 3254 3255 3256 3257 3258 3259
3260 3261 3262 3263 3264 3265 3266 3267 3268 3269 3270 3334 3335 3336 3337
3338 3339 3340 3341 3342 3343 3344 3345 3346 3347 3348 3349 3350 3351 3352
3353 3354 3355 3356 3357 3489 3490 3491 3492 3493 3494 3495 3496 3497 3498
3499 3500 3501 3502 3503 3504 3505 3506 3507 3508 3509 3510 3511 3512 3513
3514 3515 3516 3517 3518
