[ ConsensusPocket ]
42 43 44 45 46 47 48 49 50 51 52 53 54 55 56
57 58 59 60 61 62 63 64 65 66 108 109 110 111 112
113 114 115 116 117 118 119 120 121 122 123 124 125 126 127
128 129 130 131 132 133 134 135 136 156 157 158 159 160 161
162 163 164 165 166 167 168 169 170 171 172 800 801 802 803
804 805 806 807 808 809 810 828 829 830 831 832 833 834 835
836 837 838 839 840 841 842 843 844 845 846 847 848 849 850
851 852 853 854 855 856 857 858 859 860 861 862 863 864 865
866 867 892 893 894 895 896 897 898 899 900 901 902 1289 1290
1291 1292 1293 1294 1295 1296 1297 1298 1299 1300 1301 1302 1303 1304 1305
1306 1307 1308 1309 1310 1311 1312 1313 1314 1315 1316 1317 1318 1319 1320
1321 1322 1323 1324 1325 1326 1327 1328 1329 1330 1331 1332 1333 1334 1335
1336 1337 1338 1339 1340 1341 1342 1343 1344 1345 1346 1347 1348 1349 1350
1351 1352 1353 1354 1355 1356 1357 1358 1359 1360 1361 1362 1363 1364 1365
1366 1367 1368 1369 1370 1371 1372 1373 1374 1375 1376 1377 1378 1379 1380
1381 1382 1383 1384 1385 1386 1387 1388 1389 1390 1391 1392 1393 1394 1395
1396 1397 1398 1399 1400 1401 1402 1403 1404 1405 1406 1407 1844 1845 1846
1847 1848 1849 1850 1851 1852 1853 1854 1855 1856 1857 1858 1859 1860 1861
1862 1863 1864 1865 1866 1867 1868 1869 1870 1871 1872 1873 1874 1875 1876
1877 1878 1879 1880 1881 1904 1905 1906 1907 1908 1909 1910 1911 1912 1913
1914 1915 1916 1917 1918 1919 1920 1921 1922 1923 1924 1925 1926 1927 1928
1929 1930 1931 1932 1933 1934 1935 1936 1937 1938 1939 1940 1941 1967 1968
1969 1970 1971 1972 1973 1974 1975 1976 1977 1997 1998 1999 2000 2001 2002
2003 2004 2005 2006 2007 2008 2009 2010 2011 2012 2013 2014 2015 2016 2017
2018 2019 2020 2021 2022 2023 2024 2025 2026 2027 2028 2029 2030 2031 2032
2033 2034 2035 2036 2037 2038 2039 2040 2041 2042 2043 2044 2045 2046 2047
2048 2049 2050 2051 2052 2053 2054 2055 2056 2057 2058 2059 2060 2061 2062
2063 2064 2065 2066 2067 2068 2069 2070 2071 2072 2073 2074 2075 2076 2077
2078 2079 2080 2081 2082 2083 2084 2085 2086 2087 2088 2113 2114 2115 2116
2117 2118 2119 2120 2121 2122 2123 2124 2125 2126 2127 2128 2143 2144 2145
2146 2147 2148 2149 2150 2151 2152 2153 2154 2155 2156 2157 2158 2159 2160
2161 2162 2163 2164 2165 2166 2167 2168 2169 2170 2171 2172 2173 2174 2175
2176 2177 2178 2179 2180 2181 2182 2183 2184 2185 2186 2248 2249 2250 2251
2252 2253 2254 2255 2256 2257 2277 2278 2279 2280 2281 2282 2283 2284 2285
2286 2287 2288 2289 2290 2291 2292 2293 2294 2295 2296 2297 2298 2299 2300
2301 2302 2303 2304 2305 2306 2307 2308 2309 2310 2311 2312 2313 2314 2339
2340 2341 2342 2343 2344 2345 2346 2347 2348 2349 2350 2351 2352 2353 2354
2355 2356 2357 2358 2359 2360 2361 2362 2363 2364 2365 2366 2367 2368 2369
2370 2371 2372 2373 2374 2375 2376 2377 2378 2379 2380 2381 2382 2383 2384
2385 2386 2387 2388 2389 2405 2406 2407 2408 2409 2410 2411 2412 2413 2414
2415 2416 2417 2418 2419 2420 2421 2422 2423 2424 2425 2426 2427 2428 2429
2430 2431 2432 2433 2434 2435 2436 2437 2438 2439 2440 2441 2442 2443 2444
2445 2446 2447 2448 2449 2450 2451 2452 2453 2454 2455 2456 2457 2458 2459
2460 2461 2462 2463 2464 2465 2466 2520 2521 2522 2523 2524 2525 2526 2527
2528 2529 2530 2531 2532 2533 2534 2535 2536 2537 2538 2539 2540 2541 2542
2543 2544 2545 2546 2547 2548 2549 2550 2551 2552 2553 2554 2555 2556 2557
2558 2559 2906 2907 2908 2909 2910 2911 2912 2913 2914 2915 2916 2917 2918
2919 2920 2921 2922 2923 2924 3048 3049 3050 3051 3052 3053 3054 3055 3056
3057 3058 3059 3060 3061 3062 3063 3064 3065 3066 3067 3068 3100 3101 3102
3103 3104 3105 3106 3107 3108 3109 3110 3111 3112 3113 3114 3115 3116 3117
3118 3119 3120 3121 3122 3123 3124 3125 3126 3127 3128 3129 3130 3131 3132
3133 3134 3135 3170 3171 3172 3173 3174 3175 3176 3177 3178 3179 3180 3181
3182 3183 3184 3185 3186 3187 3188 3189 3190 3191 3192 3193 3194 3195 3196
3197 3198 3199 3200 3201 3202 3203 3204 3227 3228 3229 3230 3231 3232 3233
3234 3235 3236 3237 3238 3239 3240 3241 3242 3243 3244 3245 3246 3247 3248
3249 3250 3251 3252 3253 3254 3255 3256 3257 3258 3259 3260 3261 3262 3263
3264 3265 3344 3345 3346 3347 3348 3349 3350 3351 3352 3353 3354 3355 3356
3357 3358 3359 3360 3361 3362 3363 3364 3365 3366 3367 3368 3369 3370 3371
3372 3373 3374 3375 3376 3377 3378 3379 3380 3381 3382 3383 3384 3385 3403
3404 3405 3406 3407 3408 3409 3410 3411 3412 3413 3414 3415 3416 3417 3418
3419 3420 3421 3422 3423 3424 3425 3426 3427 3428 3429 3430 3431 3432 3433
3434 3435 3436 3437 3438 3439 3440 3441 3442 3443 3444 3445 3446 3447 3448
3460 3461 3462 3463 3464 3465 3466 3467 3468 3469 3470 3471 3472 3473 3474
3475 3476 3477 3478 3479 3480 3481 3482 3483 3484 3485 3486 3487 3488 3489
3490 3491 3492 3493 3494 3495 3496 3497 3498 3499 3500 3501 3502 3503 3504
3505 3506 3507 3508 3509 3510 3511 3512 3513 3514 3515 3516 3517 3518 3519
3520 3521 3522 3523 3524 3525 3571 3572 3573 3574 3575 3576 3577 3578 3579
3580 3581 3582 3583 3584 3585 3586 3587 3588 3589 3590 3591 3592 3593 3594
3595 3596 3597 3598 3599 3600 3601 3602 3603 3604 3605 3606 3607 3608 3609
3610 3611 3612 3613 3614 3615 3616 3617 3618 3619 3620 3621 3622 3623 3624
3625 3626 3627 3628 3629 3630 3631 3632 3633 3634 3635 3636 3637 3638 3639
3640 3641 3642 3643 3644 3645 3646 3647 3648 3649 3650 3651 3652 3653 3654
3655 3656 3657 3658 3659 3660 3661 3662 3663 3664 3665 3666 3667 3668 3669
3670 3671 3672 3673 3674 3675 3676 3677 3678 3679 3680 3681 3682 3683 3684
3685 3686 3687 3688 3689 3690 3691 3692 3693 3694 3695 3696 3697 3698 3699
3700 3701 3702 3703 3804 3805 3806 3807 3808 3809 3810 3811 3812 3813 3814
3815 3816 3817 3818 3819 3820 3821 3822 3823 3949 3950 3951 3952 3953 3954
3955 3956 3957 3958 3959 3960 3961 3962 3963 3964 3965 3966 3967 3968 4123
4124 4125 4126 4127 4128 4129 4130 4131 4132 4133 4134 4151 4152 4153 4154
4155 4156 4157 4158 4159 4160 4161 4162 4163 4164 4165 4166 4167 4168 4169
4170 4171 4172 4173 4174 4175 4176 4177 4178 4179 4180 4181 4182 4183 4184
4185 4186 4187 4188 4189 4190 4191 4192 4193 4194 4195 4196 4197 4198 4206
4207 4208 4209 4210 4211 4212 4213 4214 4215 4216 4217 4218 4219 4220 4221
4222 4223 4224 4225 4226 4227 4228 4229 4230 4231 4232 4233 4234 4235 4236
4237 4238 4239 4240 4241 4282 4283 4284 4285 4286 4287 4288 4289 4290 4291
4292 4293 4294 4295 4296 4297 4298 4299 4300 4301 4302 4303 4304 4305 4306
4307 4308 4309 4310 4311 4312 4313 4380 4381 4382 4383 4384 4385 4386 4387
4388 4389 4390 4391 4392 4393 4610 4611 4612 4613 4614 4615 4616 4617 4618
4619 4620 4621 4622 4623 4624 4625 4626 4627 4628 4629 4630 4631 4632 4633
4634 4635 4636 4637 4638 4639 4640 4641
