[ ConsensusPocket ]
20 21 22 23 24 25 26 27 28 29 30 31 32 33 34
35 36 37 38 39 40 41 42 43 44 45 46 47 48 49
50 68 69 70 71 72 73 74 75 76 77 639 640 641 642
643 644 645 646 647 648 649 650 651 652 664 665 666 667 668
669 670 671 672 673 674 675 676 677 678 679 680 681 682 683
684 685 686 687 688 689 690 691 692 693 694 695 718 719 720
721 722 723 724 725 726 727 848 849 850 851 852 853 854 855
856 857 858 859 860 861 862 863 864 865 866 867 868 869 870
871 872 873 874 875 876 877 878 879 880 881 882 883 884 885
886 887 888 889 890 891 892 893 894 895 896 897 898 899 900
901 902 903 904 905 906 907 908 909 910 911 912 913 914 915
916 917 918 919 920 921 922 923 924 925 926 927 928 929 930
931 932 933 934 935 936 937 938 939 940 941 942 943 944 945
946 947 948 949 950 951 952 953 954 955 956 957 958 959 960
961 962 963 964 965 1163 1164 1165 1166 1167 1168 1169 1170 1171 1172
1173 1174 1175 1176 1177 1178 1179 1180 1181 1182 1183 1184 1185 1186 1187
1188 1189 1190 1191 1192 1193 1194 1195 1196 1197 1210 1211 1212 1213 1214
1215 1216 1217 1218 1219 1220 1221 1222 1223 1224 1225 1226 1227 1228 1229
1230 1231 1232 1233 1234 1235 1236 1237 1238 1239 1240 1241 1242 1243 1244
1245 1246 1247 1248 1249 1250 1295 1296 1297 1298 1299 1300 1301 1302 1303
1304 1305 1306 1307 1308 1309 1310 1311 1312 1313 1331 1332 1333 1334 1335
1336 1337 1338 1339 1340 1341 1342 1343 1344 1345 1346 1347 1348 1349 1350
1351 1352 1353 1354 1355 1356 1357 1358 1359 1360 1361 1362 1363 1364 1365
1366 1367 1368 1369 1370 1371 1372 1373 1374 1375 1376 1377 1378 1379 1380
1381 1382 1383 1384 1385 1386 1387 1388 1389 1390 1391 1392 1393 1394 1395
1396 1397 1398 1399 1400 1401 1402 1403 1404 1405 1406 1407 1422 1423 1424
1425 1426 1427 1428 1429 1430 1431 1432 1433 1434 1435 1436 1437 1438 1439
1440 1465 1466 1467 1468 1469 1470 1471 1472 1473 1474 1475 1476 1477 1478
1479 1480 1481 1482 1483 1484 1485 1486 1487 1488 1489 1490 1491 1492 1493
1494 1495 1496 1497 1498 1499 1500 1501 1502 1503 1504 1505 1506 1507 1508
1509 1510 1511 1512 1513 1514 1515 1646 1647 1648 1649 1650 1651 1652 1653
1654 1655 1656 1657 1658 1659 1660 1661 1662 1663 1664 1681 1682 1683 1684
1685 1686 1687 1688 1689 1690 1691 1692 1693 1694 1695 1696 1697 1698 1699
1700 1701 1702 1703 1704 1705 1706 1707 1708 1709 1710 1732 1733 1734 1735
1736 1737 1738 1739 1740 1741 1742 1743 1744 1745 1746 1747 1748 1749 1750
1751 1752 1753 1754 1755 1756 1757 1758 1759 1760 1761 1762 1763 1764 1765
1766 1767 1768 1769 1770 1771 1772 1773 1774 1775 1776 1777 1778 1779 1780
1791 1792 1793 1794 1795 1796 1797 1798 1799 1800 1801 1802 1803 1804 1805
1806 1807 1808 1809 1810 1811 1812 1813 1814 1815 1816 1817 1818 1819 1851
1852 1853 1854 1855 1856 1857 1858 1859 1860 1861 1862 1863 1864 1865 1866
1867 1868 1869 1870 1871 1872 1873 1874 1875 1876 1877 1878 2377 2378 2379
2380 2381 2382 2383 2384 2385 2386 2387 2388 2389 2390 2391 2392 2393 2394
2395 2508 2509 2510 2511 2512 2513 2514 2515 2516 2517 2518 2519 2520 2521
2522 2523 2524 2525 2526 2527 2528 2564 2565 2566 2567 2568 2569 2570 2571
2572 2573 2574 2575 2576 2577 2578 2579 2580 2581 2582 2583 2584 2585 2586
2587 2588 2589 2590 2591 2592 2593 2594 2595 2596 2597 2598 2599 2622 2623
2624 2625 2626 2627 2628 2629 2630 2631 2632 2633 2634 2635 2636 2637 2638
2639 2640 2641 2642 2643 2644 2645 2646 2647 2648 2649 2650 2675 2676 2677
2678 2679 2680 2681 2682 2683 2684 2685 2686 2687 2688 2689 2690 2691 2692
2693 2694 2695 2696 2697 2698 2699 2700 2701 2702 2703 2704 2705 2706 2707
2775 2776 2777 2778 2779 2780 2781 2782 2783 2784 2785 2786 2787 2788 2789
2790 2791 2792 2793 2794 2795 2796 2797 2798 2799 2800 2801 2802 2803 2804
2805 2806 2807 2808 2809 2810 2811 2812 2813 2814 2815 2816 2817 2818 2819
2836 2837 2838 2839 2840 2841 2842 2843 2844 2845 2846 2847 2848 2849 2850
2851 2852 2853 2854 2855 2856 2857 2858 2859 2860 2861 2862 2863 2864 2865
2866 2867 2868 2869 2870 2871 2872 2873 2874 2875 2876 2877 2878 2893 2894
2895 2896 2897 2898 2899 2900 2901 2902 2903 2904 2905 2906 2907 2908 2909
2910 2911 2912 2913 2914 2915 2916 2917 2918 2919 2920 2921 2922 2923 2924
2925 2926 2927 2928 2929 2930 2931 2932 2933 2934 2935 2936 2937 2938 2939
2940 2941 2942 2943 2944 2945 2946 2947 2948 2949 2950 2951 2952 2953 2954
2955 2956 2957 2958 2959 2960 2961 2962 2963 2964 2965 2966 2967 2968 2969
2970 2971 3015 3016 3017 3018 3019 3020 3021 3022 3023 3024 3025 3026 3027
3028 3053 3054 3055 3056 3057 3058 3059 3060 3061 3062 3063 3064 3065 3066
3067 3068 3069 3070 3071 3072 3073 3074 3075 3076 3077 3078 3079 3080 3081
3082 3083 3084 3085 3086 3087 3088 3089 3090 3091 3092 3093 3094 3095 3096
3097 3098 3099 3100 3101 3102 3103 3104 3105 3106 3107 3108 3109 3110 3111
3112 3113 3114 3115 3116 3117 3118 3119 3120 3121 3122 3123 3124 3125 3126
3127 3128 3129 3130 3131 3132 3133 3134 3135 3136 3137 3138 3139 3140 3141
3142 3143 3144 3145 3146 3147 3148 3149 3150 3151 3152 3153 3154 3155 3156
3157 3158 3159 3160 3161 3162 3163 3164 3165 3166 3167 3168 3169 3170 3171
3172 3173 3174 3175 3387 3388 3389 3390 3391 3392 3393 3394 3395 3396 3397
3398 3399 3400 3401 3402 3403 3404 3405 3416 3417 3418 3419 3420 3421 3422
3423 3424 3425 3426 3427 3428 3429 3430 3431 3432 3433 3434 3435 3436 3437
3438 3439 3440 3441 3442 3443 3444 3445 3446 3447 3448 3449 3450 3451 3452
3453 3454 3455 3456 3457 3458 3459 3460 3461 3479 3480 3481 3482 3483 3484
3485 3486 3487 3488 3489 3490 3491 3492 3493 3494 3495 3496 3497 3498 3499
3544 3545 3546 3547 3548 3549 3550 3551 3552 3553 3554 3555 3575 3576 3577
3578 3579 3580 3581 3582 3583 3584 3585 3586 3587 3588 3589 3590 3591 3592
3593 3594 3595 3596 3597 3598 3599 3600 3601 3602 3603 3604 3605 3606 3607
3608 3609 3610 3611 3612 3613 3614 3615 3616 3617 3618 3619 3620 3621 3622
3623 3631 3632 3633 3634 3635 3636 3637 3638 3639 3640 3641 3642 3643 3644
3645 3646 3647 3648 3649 3650 3651 3652 3653 3654 3655 3656 3657 3658 3659
3660 3661 3662 3663 3664 3665 3666 3667 3668 3704 3705 3706 3707 3708 3709
3710 3711 3712 3713 3714 3715 3716 3717 3718 3719 3720 3721 3722 3723 3724
3725 3726 3727 3728 3729 3730 3731 3732 3779 3780 3781 3782 3783 3784 3785
3786 3787 3788 3789 3790 3791 3792 3793 3794 3795 3796 3797 3940 3941 3942
3943 3944 3945 3946 3947 3948 3949 3950 3951 3952 3953 3954 3955 3956 3957
3958 3959 3960 3961 3962 3963 3964 3965 3966 3967 3968 3969 3970 3971
