; ligand_acpype_input_GMX.itp created by acpype (v: 2023.10.27) on Tue Oct  6 10:30:52 2026

[ atomtypes ]
;name   bond_type     mass     charge   ptype   sigma         epsilon       Amb
 c5       c5          0.00000  0.00000   A     3.39771e-01   4.51035e-01 ; 1.91  0.1078
 c3       c3          0.00000  0.00000   A     3.39771e-01   4.51035e-01 ; 1.91  0.1078
 os       os          0.00000  0.00000   A     3.15610e-01   3.03758e-01 ; 1.77  0.0726
 p5       p5          0.00000  0.00000   A     3.69402e-01   9.60228e-01 ; 2.07  0.2295
 o        o           0.00000  0.00000   A     3.04812e-01   6.12119e-01 ; 1.71  0.1463
 na       na          0.00000  0.00000   A     3.20581e-01   8.54373e-01 ; 1.80  0.2042
 cc       cc          0.00000  0.00000   A     3.31521e-01   4.13379e-01 ; 1.86  0.0988
 nd       nd          0.00000  0.00000   A     3.38417e-01   3.93714e-01 ; 1.90  0.0941
 ca       ca          0.00000  0.00000   A     3.31521e-01   4.13379e-01 ; 1.86  0.0988
 nb       nb          0.00000  0.00000   A     3.38417e-01   3.93714e-01 ; 1.90  0.0941
 nv       nv          0.00000  0.00000   A     3.36813e-01   4.68608e-01 ; 1.89  0.1120
 oh       oh          0.00000  0.00000   A     3.24287e-01   3.89112e-01 ; 1.82  0.0930
 h2       h2          0.00000  0.00000   A     2.24382e-01   8.70272e-02 ; 1.26  0.0208
 h1       h1          0.00000  0.00000   A     2.42200e-01   8.70272e-02 ; 1.36  0.0208
 h5       h5          0.00000  0.00000   A     2.44730e-01   6.73624e-02 ; 1.37  0.0161
 hn       hn          0.00000  0.00000   A     1.10650e-01   4.18400e-02 ; 0.62  0.0100
 ho       ho          0.00000  0.00000   A     5.37925e-02   1.96648e-02 ; 0.30  0.0047

[ moleculetype ]
;name            nrexcl
 ligand_acpype_input 3

[ atoms ]
;   nr  type  resi  res  atom  cgnr     charge      mass       ; qtot   bond_type
     1   c5     1   ATP   C1'    1     0.243800     12.01000 ; qtot 0.244
     2   c5     1   ATP   C2'    2     0.128100     12.01000 ; qtot 0.372
     3   c5     1   ATP   C3'    3     0.062100     12.01000 ; qtot 0.434
     4   c5     1   ATP   C4'    4     0.113100     12.01000 ; qtot 0.547
     5   c3     1   ATP   C5'    5     0.209400     12.01000 ; qtot 0.757
     6   os     1   ATP   O5'    6    -0.605200     16.00000 ; qtot 0.151
     7   p5     1   ATP    PA    7     1.596800     30.97000 ; qtot 1.748
     8   os     1   ATP  OOPA    8    -0.824800     16.00000 ; qtot 0.923
     9   p5     1   ATP    PB    9     1.720800     30.97000 ; qtot 2.644
    10   os     1   ATP  OOPB   10    -0.814800     16.00000 ; qtot 1.829
    11   p5     1   ATP    PG   11     1.459900     30.97000 ; qtot 3.289
    12    o     1   ATP  OOPG   12    -0.958500     16.00000 ; qtot 2.331
    13   os     1   ATP   O4'   13    -0.447600     16.00000 ; qtot 1.883
    14    o     1   ATP    O1   14    -0.885500     16.00000 ; qtot 0.998
    15    o     1   ATP    O6   15    -0.885500     16.00000 ; qtot 0.112
    16    o     1   ATP    O7   16    -0.949000     16.00000 ; qtot -0.837
    17    o     1   ATP    O8   17    -0.949000     16.00000 ; qtot -1.786
    18    o     1   ATP    O9   18    -0.958500     16.00000 ; qtot -2.744
    19    o     1   ATP   O10   19    -0.958500     16.00000 ; qtot -3.703
    20   na     1   ATP    N9   20    -0.235000     14.01000 ; qtot -3.938
    21   cc     1   ATP    C8   21     0.513700     12.01000 ; qtot -3.424
    22   nd     1   ATP    N7   22    -0.653100     14.01000 ; qtot -4.077
    23   ca     1   ATP    C5   23    -0.163200     12.01000 ; qtot -4.241
    24   ca     1   ATP    C4   24     0.412800     12.01000 ; qtot -3.828
    25   nb     1   ATP    N3   25    -0.698000     14.01000 ; qtot -4.526
    26   ca     1   ATP    C2   26     0.589900     12.01000 ; qtot -3.936
    27   nb     1   ATP    N1   27    -0.802000     14.01000 ; qtot -4.738
    28   ca     1   ATP    C6   28     0.613200     12.01000 ; qtot -4.125
    29   nv     1   ATP    N6   29    -0.906500     14.01000 ; qtot -5.031
    30   oh     1   ATP   O2'   30    -0.672800     16.00000 ; qtot -5.704
    31   oh     1   ATP   O3'   31    -0.646800     16.00000 ; qtot -6.351
    32   h2     1   ATP   H1'   32     0.066700      1.00800 ; qtot -6.284
    33   h1     1   ATP   H2'   33     0.131700      1.00800 ; qtot -6.152
    34   h1     1   ATP   H3'   34     0.188700      1.00800 ; qtot -5.964
    35   h1     1   ATP   H4'   35     0.034700      1.00800 ; qtot -5.929
    36   h1     1   ATP  HH5'   36     0.015200      1.00800 ; qtot -5.914
    37   h1     1   ATP    H5   37     0.015200      1.00800 ; qtot -5.898
    38   h5     1   ATP    H8   38     0.234800      1.00800 ; qtot -5.664
    39   h5     1   ATP    H2   39     0.003100      1.00800 ; qtot -5.661
    40   hn     1   ATP   HH6   40     0.374300      1.00800 ; qtot -5.286
    41   hn     1   ATP    H6   41     0.374300      1.00800 ; qtot -4.912
    42   ho     1   ATP  HO2'   42     0.499000      1.00800 ; qtot -4.413
    43   ho     1   ATP  HO3'   43     0.413000      1.00800 ; qtot -4.000

[ bonds ]
;   ai     aj funct   r             k
     1      2   1    1.5483e-01    1.8418e+05 ;    C1' - C2'   
     1     13   1    1.4346e-01    2.3063e+05 ;    C1' - O4'   
     1     20   1    1.4571e-01    2.1790e+05 ;    C1' - N9    
     1     32   1    1.0955e-01    2.8977e+05 ;    C1' - H1'   
     2      3   1    1.5483e-01    1.8418e+05 ;    C2' - C3'   
     2     30   1    1.4194e-01    2.4241e+05 ;    C2' - O2'   
     2     33   1    1.0972e-01    2.8768e+05 ;    C2' - H2'   
     3      4   1    1.5483e-01    1.8418e+05 ;    C3' - C4'   
     3     31   1    1.4194e-01    2.4241e+05 ;    C3' - O3'   
     3     34   1    1.0972e-01    2.8768e+05 ;    C3' - H3'   
     4      5   1    1.5372e-01    1.9049e+05 ;    C4' - C5'   
     4     13   1    1.4346e-01    2.3063e+05 ;    C4' - O4'   
     4     35   1    1.0972e-01    2.8768e+05 ;    C4' - H4'   
     5      6   1    1.4273e-01    2.3620e+05 ;    C5' - O5'   
     5     36   1    1.0969e-01    2.8804e+05 ;    C5' - HH5'  
     5     37   1    1.0969e-01    2.8804e+05 ;    C5' - H5    
     6      7   1    1.6182e-01    3.2434e+05 ;    O5' - PA    
     7      8   1    1.6182e-01    3.2434e+05 ;     PA - OOPA  
     7     14   1    1.4885e-01    4.7951e+05 ;     PA - O1    
     7     15   1    1.4885e-01    4.7951e+05 ;     PA - O6    
     8      9   1    1.6182e-01    3.2434e+05 ;   OOPA - PB    
     9     10   1    1.6182e-01    3.2434e+05 ;     PB - OOPB  
     9     16   1    1.4885e-01    4.7951e+05 ;     PB - O7    
     9     17   1    1.4885e-01    4.7951e+05 ;     PB - O8    
    10     11   1    1.6182e-01    3.2434e+05 ;   OOPB - PG    
    11     12   1    1.4885e-01    4.7951e+05 ;     PG - OOPG  
    11     18   1    1.4885e-01    4.7951e+05 ;     PG - O9    
    11     19   1    1.4885e-01    4.7951e+05 ;     PG - O10   
    20     21   1    1.3803e-01    2.8075e+05 ;     N9 - C8    
    20     24   1    1.3858e-01    2.7557e+05 ;     N9 - C4    
    21     22   1    1.3158e-01    3.5122e+05 ;     C8 - N7    
    21     38   1    1.0820e-01    3.0708e+05 ;     C8 - H8    
    22     23   1    1.3864e-01    2.7501e+05 ;     N7 - C5    
    23     24   1    1.3986e-01    2.9644e+05 ;     C5 - C4    
    23     28   1    1.3986e-01    2.9644e+05 ;     C5 - C6    
    24     25   1    1.3392e-01    3.2341e+05 ;     C4 - N3    
    25     26   1    1.3392e-01    3.2341e+05 ;     N3 - C2    
    26     27   1    1.3392e-01    3.2341e+05 ;     C2 - N1    
    26     39   1    1.0880e-01    2.9923e+05 ;     C2 - H2    
    27     28   1    1.3392e-01    3.2341e+05 ;     N1 - C6    
    28     29   1    1.3744e-01    2.8644e+05 ;     C6 - N6    
    29     40   1    1.0114e-01    3.9961e+05 ;     N6 - HH6   
    29     41   1    1.0114e-01    3.9961e+05 ;     N6 - H6    
    30     42   1    9.7250e-02    4.4811e+05 ;    O2' - HO2'  
    31     43   1    9.7250e-02    4.4811e+05 ;    O3' - HO3'  

[ pairs ]
;   ai     aj    funct
     1      5      1 ;    C1' - C5'   
     1     22      1 ;    C1' - N7    
     1     23      1 ;    C1' - C5    
     1     25      1 ;    C1' - N3    
     1     31      1 ;    C1' - O3'   
     1     34      1 ;    C1' - H3'   
     1     35      1 ;    C1' - H4'   
     1     38      1 ;    C1' - H8    
     1     42      1 ;    C1' - HO2'  
     2      5      1 ;    C2' - C5'   
     2     21      1 ;    C2' - C8    
     2     24      1 ;    C2' - C4    
     2     35      1 ;    C2' - H4'   
     2     43      1 ;    C2' - HO3'  
     3      6      1 ;    C3' - O5'   
     3     36      1 ;    C3' - HH5'  
     3     37      1 ;    C3' - H5    
     3     42      1 ;    C3' - HO2'  
     4      7      1 ;    C4' - PA    
     4     30      1 ;    C4' - O2'   
     4     33      1 ;    C4' - H2'   
     4     43      1 ;    C4' - HO3'  
     5      8      1 ;    C5' - OOPA  
     5     14      1 ;    C5' - O1    
     5     15      1 ;    C5' - O6    
     5     31      1 ;    C5' - O3'   
     5     34      1 ;    C5' - H3'   
     6      9      1 ;    O5' - PB    
     6     13      1 ;    O5' - O4'   
     6     35      1 ;    O5' - H4'   
     7     10      1 ;     PA - OOPB  
     7     16      1 ;     PA - O7    
     7     17      1 ;     PA - O8    
     7     36      1 ;     PA - HH5'  
     7     37      1 ;     PA - H5    
     8     11      1 ;   OOPA - PG    
     9     12      1 ;     PB - OOPG  
     9     14      1 ;     PB - O1    
     9     15      1 ;     PB - O6    
     9     18      1 ;     PB - O9    
     9     19      1 ;     PB - O10   
    11     16      1 ;     PG - O7    
    11     17      1 ;     PG - O8    
    13     21      1 ;    O4' - C8    
    13     24      1 ;    O4' - C4    
    13     30      1 ;    O4' - O2'   
    13     31      1 ;    O4' - O3'   
    13     33      1 ;    O4' - H2'   
    13     34      1 ;    O4' - H3'   
    13     36      1 ;    O4' - HH5'  
    13     37      1 ;    O4' - H5    
    20      3      1 ;     N9 - C3'   
    20      4      1 ;     N9 - C4'   
    20     26      1 ;     N9 - C2    
    20     28      1 ;     N9 - C6    
    20     30      1 ;     N9 - O2'   
    20     33      1 ;     N9 - H2'   
    21     25      1 ;     C8 - N3    
    21     28      1 ;     C8 - C6    
    22     25      1 ;     N7 - N3    
    22     27      1 ;     N7 - N1    
    22     29      1 ;     N7 - N6    
    23     26      1 ;     C5 - C2    
    23     38      1 ;     C5 - H8    
    23     40      1 ;     C5 - HH6   
    23     41      1 ;     C5 - H6    
    24     27      1 ;     C4 - N1    
    24     29      1 ;     C4 - N6    
    24     38      1 ;     C4 - H8    
    24     39      1 ;     C4 - H2    
    25     28      1 ;     N3 - C6    
    26     29      1 ;     C2 - N6    
    27     40      1 ;     N1 - HH6   
    27     41      1 ;     N1 - H6    
    28     39      1 ;     C6 - H2    
    30     31      1 ;    O2' - O3'   
    30     34      1 ;    O2' - H3'   
    31     33      1 ;    O3' - H2'   
    31     35      1 ;    O3' - H4'   
    32      3      1 ;    H1' - C3'   
    32      4      1 ;    H1' - C4'   
    32     21      1 ;    H1' - C8    
    32     24      1 ;    H1' - C4    
    32     30      1 ;    H1' - O2'   
    32     33      1 ;    H1' - H2'   
    33     34      1 ;    H2' - H3'   
    33     42      1 ;    H2' - HO2'  
    34     35      1 ;    H3' - H4'   
    34     43      1 ;    H3' - HO3'  
    35     36      1 ;    H4' - HH5'  
    35     37      1 ;    H4' - H5    

[ angles ]
;   ai     aj     ak    funct   theta         cth
     1      2      3      1    1.0383e+02    5.1748e+02 ;    C1' - C2'    - C3'   
     1      2     30      1    1.1162e+02    6.3455e+02 ;    C1' - C2'    - O2'   
     1      2     33      1    1.1117e+02    3.5690e+02 ;    C1' - C2'    - H2'   
     1     13      4      1    1.0926e+02    7.4986e+02 ;    C1' - O4'    - C4'   
     1     20     21      1    1.2654e+02    6.3128e+02 ;    C1' - N9     - C8    
     1     20     24      1    1.2776e+02    6.2718e+02 ;    C1' - N9     - C4    
     2      1     13      1    1.0614e+02    6.4793e+02 ;    C2' - C1'    - O4'   
     2      1     20      1    1.1485e+02    5.3714e+02 ;    C2' - C1'    - N9    
     2      1     32      1    1.1053e+02    3.5798e+02 ;    C2' - C1'    - H1'   
     2      3      4      1    1.0383e+02    5.1748e+02 ;    C2' - C3'    - C4'   
     2      3     31      1    1.1162e+02    6.3455e+02 ;    C2' - C3'    - O3'   
     2      3     34      1    1.1117e+02    3.5690e+02 ;    C2' - C3'    - H3'   
     2     30     42      1    1.0717e+02    5.4727e+02 ;    C2' - O2'    - HO2'  
     3      2     30      1    1.1162e+02    6.3455e+02 ;    C3' - C2'    - O2'   
     3      2     33      1    1.1117e+02    3.5690e+02 ;    C3' - C2'    - H2'   
     3      4      5      1    1.1360e+02    4.9647e+02 ;    C3' - C4'    - C5'   
     3      4     13      1    1.0614e+02    6.4793e+02 ;    C3' - C4'    - O4'   
     3      4     35      1    1.1117e+02    3.5690e+02 ;    C3' - C4'    - H4'   
     3     31     43      1    1.0717e+02    5.4727e+02 ;    C3' - O3'    - HO3'  
     4      3     31      1    1.1162e+02    6.3455e+02 ;    C4' - C3'    - O3'   
     4      3     34      1    1.1117e+02    3.5690e+02 ;    C4' - C3'    - H3'   
     4      5      6      1    1.0752e+02    6.4785e+02 ;    C4' - C5'    - O5'   
     4      5     36      1    1.0938e+02    3.6217e+02 ;    C4' - C5'    - HH5'  
     4      5     37      1    1.0938e+02    3.6217e+02 ;    C4' - C5'    - H5    
     5      4     13      1    1.0897e+02    6.4224e+02 ;    C5' - C4'    - O4'   
     5      4     35      1    1.0924e+02    3.6242e+02 ;    C5' - C4'    - H4'   
     5      6      7      1    1.1970e+02    4.7396e+02 ;    C5' - O5'    - PA    
     6      5     36      1    1.1034e+02    4.7028e+02 ;    O5' - C5'    - HH5'  
     6      5     37      1    1.1034e+02    4.7028e+02 ;    O5' - C5'    - H5    
     6      7      8      1    1.0172e+02    8.6123e+02 ;    O5' - PA     - OOPA  
     6      7     14      1    1.1544e+02    8.3931e+02 ;    O5' - PA     - O1    
     6      7     15      1    1.1544e+02    8.3931e+02 ;    O5' - PA     - O6    
     7      8      9      1    1.2552e+02    3.1062e+02 ;     PA - OOPA   - PB    
     8      7     14      1    1.1544e+02    8.3931e+02 ;   OOPA - PA     - O1    
     8      7     15      1    1.1544e+02    8.3931e+02 ;   OOPA - PA     - O6    
     8      9     10      1    1.0172e+02    8.6123e+02 ;   OOPA - PB     - OOPB  
     8      9     16      1    1.1544e+02    8.3931e+02 ;   OOPA - PB     - O7    
     8      9     17      1    1.1544e+02    8.3931e+02 ;   OOPA - PB     - O8    
     9     10     11      1    1.2552e+02    3.1062e+02 ;     PB - OOPB   - PG    
    10      9     16      1    1.1544e+02    8.3931e+02 ;   OOPB - PB     - O7    
    10      9     17      1    1.1544e+02    8.3931e+02 ;   OOPB - PB     - O8    
    10     11     12      1    1.1544e+02    8.3931e+02 ;   OOPB - PG     - OOPG  
    10     11     18      1    1.1544e+02    8.3931e+02 ;   OOPB - PG     - O9    
    10     11     19      1    1.1544e+02    8.3931e+02 ;   OOPB - PG     - O10   
    12     11     18      1    1.1829e+02    8.6826e+02 ;   OOPG - PG     - O9    
    12     11     19      1    1.1829e+02    8.6826e+02 ;   OOPG - PG     - O10   
    13      1     20      1    1.0927e+02    7.0124e+02 ;    O4' - C1'    - N9    
    13      1     32      1    1.0947e+02    4.7028e+02 ;    O4' - C1'    - H1'   
    13      4     35      1    1.0846e+02    4.7229e+02 ;    O4' - C4'    - H4'   
    14      7     15      1    1.1829e+02    8.6826e+02 ;     O1 - PA     - O6    
    16      9     17      1    1.1829e+02    8.6826e+02 ;     O7 - PB     - O8    
    18     11     19      1    1.1829e+02    8.6826e+02 ;     O9 - PG     - O10   
    20      1     32      1    1.0616e+02    4.0911e+02 ;     N9 - C1'    - H1'   
    20     21     22      1    1.1201e+02    6.4408e+02 ;     N9 - C8     - N7    
    20     21     38      1    1.2178e+02    4.0024e+02 ;     N9 - C8     - H8    
    20     24     23      1    1.2031e+02    5.6752e+02 ;     N9 - C4     - C5    
    20     24     25      1    1.2710e+02    5.9856e+02 ;     N9 - C4     - N3    
    21     20     24      1    1.1732e+02    6.7354e+02 ;     C8 - N9     - C4    
    21     22     23      1    1.0545e+02    7.2626e+02 ;     C8 - N7     - C5    
    22     21     38      1    1.2562e+02    4.0886e+02 ;     N7 - C8     - H8    
    22     23     24      1    1.2100e+02    5.6576e+02 ;     N7 - C5     - C4    
    22     23     28      1    1.2100e+02    5.6576e+02 ;     N7 - C5     - C6    
    23     24     25      1    1.2294e+02    5.7045e+02 ;     C5 - C4     - N3    
    23     28     27      1    1.2294e+02    5.7045e+02 ;     C5 - C6     - N1    
    23     28     29      1    1.2094e+02    5.6827e+02 ;     C5 - C6     - N6    
    24     23     28      1    1.2002e+02    5.3279e+02 ;     C4 - C5     - C6    
    24     25     26      1    1.1724e+02    6.9580e+02 ;     C4 - N3     - C2    
    25     26     27      1    1.2730e+02    6.0886e+02 ;     N3 - C2     - N1    
    25     26     39      1    1.1579e+02    4.1974e+02 ;     N3 - C2     - H2    
    26     27     28      1    1.1724e+02    6.9580e+02 ;     C2 - N1     - C6    
    27     26     39      1    1.1579e+02    4.1974e+02 ;     N1 - C2     - H2    
    27     28     29      1    1.1677e+02    6.2727e+02 ;     N1 - C6     - N6    
    28     29     40      1    1.1673e+02    4.8292e+02 ;     C6 - N6     - HH6   
    28     29     41      1    1.1673e+02    4.8292e+02 ;     C6 - N6     - H6    
    30      2     33      1    1.1027e+02    4.7254e+02 ;    O2' - C2'    - H2'   
    31      3     34      1    1.1027e+02    4.7254e+02 ;    O3' - C3'    - H3'   
    36      5     37      1    1.0855e+02    2.9824e+02 ;   HH5' - C5'    - H5    
    40     29     41      1    1.1528e+02    3.8794e+02 ;    HH6 - N6     - H6    

[ dihedrals ] ; propers
; for gromacs 4.5 or higher, using funct 9
;    i      j      k      l   func   phase     kd      pn
     1      2      3      4      9     0.00   2.17568   3 ;    C1'-   C2'-   C3'-   C4'
     1      2      3     31      9     0.00   0.75312   3 ;    C1'-   C2'-   C3'-   O3'
     1      2      3     34      9     0.00   0.65084   3 ;    C1'-   C2'-   C3'-   H3'
     1      2     30     42      9     0.00   0.25104   3 ;    C1'-   C2'-   O2'-  HO2'
     1     13      4      3      9     0.00   0.33472   2 ;    C1'-   O4'-   C4'-   C3'
     1     13      4      3      9     0.00   3.13800   3 ;    C1'-   O4'-   C4'-   C3'
     1     13      4      3      9   180.00   3.68192   1 ;    C1'-   O4'-   C4'-   C3'
     1     13      4      5      9     0.00   0.33472   2 ;    C1'-   O4'-   C4'-   C5'
     1     13      4      5      9     0.00   3.13800   3 ;    C1'-   O4'-   C4'-   C5'
     1     13      4      5      9   180.00   3.68192   1 ;    C1'-   O4'-   C4'-   C5'
     1     13      4     35      9     0.00   1.41001   3 ;    C1'-   O4'-   C4'-   H4'
     1     20     21     22      9   180.00   7.11280   2 ;    C1'-    N9-    C8-    N7
     1     20     21     38      9   180.00   7.11280   2 ;    C1'-    N9-    C8-    H8
     1     20     24     23      9   180.00   1.25520   2 ;    C1'-    N9-    C4-    C5
     1     20     24     25      9   180.00   1.25520   2 ;    C1'-    N9-    C4-    N3
     2      1     13      4      9     0.00   0.33472   2 ;    C2'-   C1'-   O4'-   C4'
     2      1     13      4      9     0.00   3.13800   3 ;    C2'-   C1'-   O4'-   C4'
     2      1     13      4      9   180.00   3.68192   1 ;    C2'-   C1'-   O4'-   C4'
     2      1     20     21      9     0.00   0.00000   0 ;    C2'-   C1'-    N9-    C8
     2      1     20     24      9     0.00   0.00000   0 ;    C2'-   C1'-    N9-    C4
     2      3      4      5      9     0.00   2.17568   3 ;    C2'-   C3'-   C4'-   C5'
     2      3      4     13      9     0.00   0.65084   3 ;    C2'-   C3'-   C4'-   O4'
     2      3      4     35      9     0.00   0.65084   3 ;    C2'-   C3'-   C4'-   H4'
     2      3     31     43      9     0.00   0.25104   3 ;    C2'-   C3'-   O3'-  HO3'
     3      2     30     42      9     0.00   0.25104   3 ;    C3'-   C2'-   O2'-  HO2'
     3      4      5      6      9     0.00   0.65084   3 ;    C3'-   C4'-   C5'-   O5'
     3      4      5     36      9     0.00   0.65084   3 ;    C3'-   C4'-   C5'-  HH5'
     3      4      5     37      9     0.00   0.65084   3 ;    C3'-   C4'-   C5'-    H5
     4      3      2     30      9     0.00   0.75312   3 ;    C4'-   C3'-   C2'-   O2'
     4      3      2     33      9     0.00   0.65084   3 ;    C4'-   C3'-   C2'-   H2'
     4      3     31     43      9     0.00   0.25104   3 ;    C4'-   C3'-   O3'-  HO3'
     4      5      6      7      9     0.00   1.60247   3 ;    C4'-   C5'-   O5'-    PA
     4      5      6      7      9   180.00  16.52680   1 ;    C4'-   C5'-   O5'-    PA
     5      4      3     31      9     0.00   0.75312   3 ;    C5'-   C4'-   C3'-   O3'
     5      4      3     34      9     0.00   0.65084   3 ;    C5'-   C4'-   C3'-   H3'
     5      6      7      8      9     0.00  14.72768   2 ;    C5'-   O5'-    PA-  OOPA
     5      6      7     14      9     0.00   2.30120   3 ;    C5'-   O5'-    PA-    O1
     5      6      7     14      9     0.00   3.34720   2 ;    C5'-   O5'-    PA-    O1
     5      6      7     15      9     0.00   2.30120   3 ;    C5'-   O5'-    PA-    O6
     5      6      7     15      9     0.00   3.34720   2 ;    C5'-   O5'-    PA-    O6
     6      5      4     13      9     0.00   1.25520   2 ;    O5'-   C5'-   C4'-   O4'
     6      5      4     13      9   180.00   2.55224   1 ;    O5'-   C5'-   C4'-   O4'
     6      5      4     13      9   180.00   2.92880   3 ;    O5'-   C5'-   C4'-   O4'
     6      5      4     35      9     0.00   0.00000   0 ;    O5'-   C5'-   C4'-   H4'
     6      5      4     35      9     0.00   1.04600   1 ;    O5'-   C5'-   C4'-   H4'
     6      7      8      9      9     0.00   3.34720   2 ;    O5'-    PA-  OOPA-    PB
     7      6      5     36      9     0.00   0.00000   0 ;     PA-   O5'-   C5'-  HH5'
     7      6      5     37      9     0.00   0.00000   0 ;     PA-   O5'-   C5'-    H5
     7      8      9     10      9     0.00   3.34720   2 ;     PA-  OOPA-    PB-  OOPB
     7      8      9     16      9     0.00   3.34720   2 ;     PA-  OOPA-    PB-    O7
     7      8      9     17      9     0.00   3.34720   2 ;     PA-  OOPA-    PB-    O8
     8      9     10     11      9     0.00   3.34720   2 ;   OOPA-    PB-  OOPB-    PG
     9      8      7     14      9     0.00   3.34720   2 ;     PB-  OOPA-    PA-    O1
     9      8      7     15      9     0.00   3.34720   2 ;     PB-  OOPA-    PA-    O6
     9     10     11     12      9     0.00   3.34720   2 ;     PB-  OOPB-    PG-  OOPG
     9     10     11     18      9     0.00   3.34720   2 ;     PB-  OOPB-    PG-    O9
     9     10     11     19      9     0.00   3.34720   2 ;     PB-  OOPB-    PG-   O10
    11     10      9     16      9     0.00   3.34720   2 ;     PG-  OOPB-    PB-    O7
    11     10      9     17      9     0.00   3.34720   2 ;     PG-  OOPB-    PB-    O8
    13      1      2      3      9     0.00   0.65084   3 ;    O4'-   C1'-   C2'-   C3'
    13      1      2     30      9     0.00   2.46856   1 ;    O4'-   C1'-   C2'-   O2'
    13      1      2     30      9     0.00   3.30536   3 ;    O4'-   C1'-   C2'-   O2'
    13      1      2     30      9     0.00   5.27184   2 ;    O4'-   C1'-   C2'-   O2'
    13      1      2     33      9     0.00   0.00000   0 ;    O4'-   C1'-   C2'-   H2'
    13      1      2     33      9     0.00   1.04600   1 ;    O4'-   C1'-   C2'-   H2'
    13      1     20     21      9     0.00   0.83680   3 ;    O4'-   C1'-    N9-    C8
    13      1     20     21      9     0.00   6.13653   2 ;    O4'-   C1'-    N9-    C8
    13      1     20     21      9     0.00   9.99976   1 ;    O4'-   C1'-    N9-    C8
    13      1     20     24      9     0.00   0.00000   0 ;    O4'-   C1'-    N9-    C4
    13      4      3     31      9     0.00   2.46856   1 ;    O4'-   C4'-   C3'-   O3'
    13      4      3     31      9     0.00   3.30536   3 ;    O4'-   C4'-   C3'-   O3'
    13      4      3     31      9     0.00   5.27184   2 ;    O4'-   C4'-   C3'-   O3'
    13      4      3     34      9     0.00   0.00000   0 ;    O4'-   C4'-   C3'-   H3'
    13      4      3     34      9     0.00   1.04600   1 ;    O4'-   C4'-   C3'-   H3'
    13      4      5     36      9     0.00   0.00000   0 ;    O4'-   C4'-   C5'-  HH5'
    13      4      5     36      9     0.00   1.04600   1 ;    O4'-   C4'-   C5'-  HH5'
    13      4      5     37      9     0.00   0.00000   0 ;    O4'-   C4'-   C5'-    H5
    13      4      5     37      9     0.00   1.04600   1 ;    O4'-   C4'-   C5'-    H5
    20      1      2      3      9     0.00   0.65084   3 ;     N9-   C1'-   C2'-   C3'
    20      1      2     30      9     0.00   0.65084   3 ;     N9-   C1'-   C2'-   O2'
    20      1      2     33      9     0.00   0.65084   3 ;     N9-   C1'-   C2'-   H2'
    20      1     13      4      9     0.00   1.60247   3 ;     N9-   C1'-   O4'-   C4'
    20      1     13      4      9     0.00   2.71960   2 ;     N9-   C1'-   O4'-   C4'
    20     21     22     23      9   180.00  19.87400   2 ;     N9-    C8-    N7-    C5
    20     24     23     22      9   180.00  15.16700   2 ;     N9-    C4-    C5-    N7
    20     24     23     28      9   180.00  15.16700   2 ;     N9-    C4-    C5-    C6
    20     24     25     26      9   180.00  20.08320   2 ;     N9-    C4-    N3-    C2
    21     20     24     23      9   180.00   2.56479   2 ;     C8-    N9-    C4-    C5
    21     20     24     25      9   180.00   1.25520   2 ;     C8-    N9-    C4-    N3
    21     22     23     24      9   180.00  20.08320   2 ;     C8-    N7-    C5-    C4
    21     22     23     28      9   180.00  20.08320   2 ;     C8-    N7-    C5-    C6
    22     21     20     24      9   180.00   7.11280   2 ;     N7-    C8-    N9-    C4
    22     23     24     25      9   180.00  15.16700   2 ;     N7-    C5-    C4-    N3
    22     23     28     27      9   180.00  15.16700   2 ;     N7-    C5-    C6-    N1
    22     23     28     29      9   180.00  15.16700   2 ;     N7-    C5-    C6-    N6
    23     22     21     38      9   180.00  19.87400   2 ;     C5-    N7-    C8-    H8
    23     24     25     26      9   180.00  20.08320   2 ;     C5-    C4-    N3-    C2
    23     28     27     26      9   180.00  20.08320   2 ;     C5-    C6-    N1-    C2
    23     28     29     40      9   180.00   4.39320   2 ;     C5-    C6-    N6-   HH6
    23     28     29     41      9   180.00   4.39320   2 ;     C5-    C6-    N6-    H6
    24     20     21     38      9   180.00   7.11280   2 ;     C4-    N9-    C8-    H8
    24     23     28     27      9   180.00  15.16700   2 ;     C4-    C5-    C6-    N1
    24     23     28     29      9   180.00  15.16700   2 ;     C4-    C5-    C6-    N6
    24     25     26     27      9   180.00  20.08320   2 ;     C4-    N3-    C2-    N1
    24     25     26     39      9   180.00  20.08320   2 ;     C4-    N3-    C2-    H2
    25     24     23     28      9   180.00  15.16700   2 ;     N3-    C4-    C5-    C6
    25     26     27     28      9   180.00  20.08320   2 ;     N3-    C2-    N1-    C6
    26     27     28     29      9   180.00  20.08320   2 ;     C2-    N1-    C6-    N6
    27     28     29     40      9   180.00   4.39320   2 ;     N1-    C6-    N6-   HH6
    27     28     29     41      9   180.00   4.39320   2 ;     N1-    C6-    N6-    H6
    28     27     26     39      9   180.00  20.08320   2 ;     C6-    N1-    C2-    H2
    30      2      3     31      9     0.00   4.18400   1 ;    O2'-   C2'-   C3'-   O3'
    30      2      3     31      9     0.00   6.02496   3 ;    O2'-   C2'-   C3'-   O3'
    30      2      3     34      9     0.00   0.00000   0 ;    O2'-   C2'-   C3'-   H3'
    30      2      3     34      9     0.00   1.04600   1 ;    O2'-   C2'-   C3'-   H3'
    31      3      2     33      9     0.00   0.00000   0 ;    O3'-   C3'-   C2'-   H2'
    31      3      2     33      9     0.00   1.04600   1 ;    O3'-   C3'-   C2'-   H2'
    31      3      4     35      9     0.00   0.00000   0 ;    O3'-   C3'-   C4'-   H4'
    31      3      4     35      9     0.00   1.04600   1 ;    O3'-   C3'-   C4'-   H4'
    32      1      2      3      9     0.00   0.65084   3 ;    H1'-   C1'-   C2'-   C3'
    32      1      2     30      9     0.00   0.65084   3 ;    H1'-   C1'-   C2'-   O2'
    32      1      2     33      9     0.00   0.65084   3 ;    H1'-   C1'-   C2'-   H2'
    32      1     13      4      9     0.00   1.60387   3 ;    H1'-   C1'-   O4'-   C4'
    32      1     20     21      9     0.00   0.00000   0 ;    H1'-   C1'-    N9-    C8
    32      1     20     24      9     0.00   0.00000   0 ;    H1'-   C1'-    N9-    C4
    33      2      3     34      9     0.00   0.65084   3 ;    H2'-   C2'-   C3'-   H3'
    33      2     30     42      9     0.00   0.51463   3 ;    H2'-   C2'-   O2'-  HO2'
    34      3      4     35      9     0.00   0.65084   3 ;    H3'-   C3'-   C4'-   H4'
    34      3     31     43      9     0.00   0.51463   3 ;    H3'-   C3'-   O3'-  HO3'
    35      4      5     36      9     0.00   0.65084   3 ;    H4'-   C4'-   C5'-  HH5'
    35      4      5     37      9     0.00   0.65084   3 ;    H4'-   C4'-   C5'-    H5

[ dihedrals ] ; impropers
; treated as propers in GROMACS to use correct AMBER analytical function
;    i      j      k      l   func   phase     kd      pn
     1     24     20     21      4   180.00   4.60240   2 ;    C1'-    C4-    N9-    C8
    23     20     24     25      4   180.00   4.60240   2 ;     C5-    N9-    C4-    N3
    23     27     28     29      4   180.00   4.60240   2 ;     C5-    N1-    C6-    N6
    24     28     23     22      4   180.00   4.60240   2 ;     C4-    C6-    C5-    N7
    28     40     29     41      4   180.00   4.60240   2 ;     C6-   HH6-    N6-    H6
    38     20     21     22      4   180.00   4.60240   2 ;     H8-    N9-    C8-    N7
    39     25     26     27      4   180.00   4.60240   2 ;     H2-    N3-    C2-    N1
