ligand_acpype_input.pdb
    43
  -8.3350000  -4.6640000   7.3790000  -7.1610000  -5.3500000   6.7180000
  -6.4770000  -6.0310000   7.8890000  -6.7990000  -5.1190000   9.0760000
  -5.6280000  -4.2710000   9.5160000  -5.1670000  -3.5220000   8.4120000
  -3.7050000  -2.8850000   8.3820000  -2.7540000  -4.1620000   8.3670000
  -2.2770000  -4.9960000   7.1080000  -0.7290000  -4.7140000   7.0280000
   0.0030000  -3.3670000   6.5250000  -0.9890000  -2.5000000   5.8100000
  -7.8700000  -4.2780000   8.6740000  -3.4430000  -2.1570000   9.6420000
  -3.5690000  -2.0960000   7.1140000  -2.9520000  -4.5390000   5.8700000
  -2.4840000  -6.4640000   7.4390000   1.0860000  -3.8420000   5.6380000
   0.5280000  -2.7040000   7.7660000  -8.7600000  -3.4570000   6.6560000
  -8.0420000  -2.3390000   6.4370000  -8.7420000  -1.4220000   5.7500000
  -9.9540000  -1.9810000   5.5160000  -9.9670000  -3.2830000   6.0950000
 -11.0490000  -4.0660000   6.0310000 -12.1320000  -3.6040000   5.4060000
 -12.2110000  -2.3940000   4.8280000 -11.1530000  -1.5580000   4.8560000
 -11.2500000  -0.3390000   4.2840000  -7.5900000  -6.2760000   5.7330000
  -7.0520000  -7.3060000   8.1250000  -9.0860000  -5.2910000   7.4320000
  -6.5930000  -4.6550000   6.3250000  -5.5050000  -6.0920000   7.7840000
  -7.0920000  -5.6700000   9.8320000  -5.9000000  -3.6550000  10.2280000
  -4.8990000  -4.8380000   9.8440000  -7.0490000  -2.1820000   6.7730000
 -12.9980000  -4.2120000   5.3440000 -12.0940000  -0.0610000   3.8470000
 -10.4760000   0.2780000   4.3020000  -8.0230000  -5.7870000   5.0020000
  -6.6730000  -7.6790000   8.9480000
