[ ConsensusPocket ]
29 30 31 32 33 34 35 36 37 38 39 40 41 42 43
44 45 46 47 48 49 50 51 52 53 54 55 56 57 58
59 60 61 62 63 64 65 66 110 111 112 113 114 115 116
117 118 119 120 121 122 123 124 125 126 127 128 129 130 131
132 133 134 135 136 137 138 139 140 152 153 154 155 156 157
158 280 281 282 283 284 285 286 287 288 289 290 291 292 293
294 295 296 297 298 299 300 301 302 303 316 317 318 319 320
321 322 323 324 325 326 327 328 329 330 331 332 333 334 335
336 337 338 339 340 341 342 343 344 345 346 347 348 349 350
351 352 353 366 367 368 369 370 371 372 373 374 375 718 719
720 721 722 723 724 725 726 727 728 729 730 731 732 733 734
735 736 737 738 739 740 741 742 743 744 745 746 747 748 749
750 751 752 753 754 755 756 757 758 759 760 761 762 763 764
765 766 767 768 769 770 771 772 773 774 775 776 777 778 779
780 781 782 783 784 785 786 787 788 789 790 791 792 793 794
795 796 797 798 799 800 801 802 803 804 805 806 807 808 809
810 811 812 813 814 815 816 817 818 819 820 821 822 823 824
1061 1062 1063 1064 1065 1066 1067 1068 1069 1070 1071 1072 1073 1074 1075
1076 1077 1078 1079 1080 1081 1082 1083 1084 1085 1086 1087 1088 1089 1090
1091 1092 1093 1094 1095 1096 1097 1098 1123 1124 1125 1126 1127 1128 1129
1130 1131 1132 1133 1134 1135 1136 1137 1138 1139 1140 1141 1142 1143 1144
1145 1146 1147 1148 1149 1150 1151 1152 1153 1154 1155 1156 1196 1197 1198
1199 1200 1201 1202 1203 1204 1205 1228 1229 1230 1231 1232 1233 1234 1235
1236 1237 1238 1239 1240 1241 1242 1243 1244 1245 1246 1247 1248 1249 1250
1251 1252 1253 1254 1255 1256 1257 1258 1259 1260 1261 1262 1263 1264 1265
1266 1267 1268 1269 1270 1271 1272 1273 1274 1275 1276 1277 1278 1279 1280
1281 1282 1283 1284 1285 1286 1287 1288 1289 1290 1291 1292 1293 1294 1295
1310 1311 1312 1313 1314 1315 1316 1317 1318 1319 1320 1321 1322 1323 1324
1325 1326 1327 1328 1348 1349 1350 1351 1352 1353 1354 1355 1356 1357 1358
1359 1360 1361 1362 1363 1364 1365 1366 1367 1368 1369 1370 1371 1372 1373
1374 1375 1376 1377 1378 1379 1380 1381 1382 1383 1384 1385 1386 1387 1388
1389 1390 1391 1392 1393 1394 1395 1396 1397 1398 1399 1400 1401 1402 1403
1404 1405 1406 1513 1514 1515 1516 1517 1518 1519 1520 1521 1522 1544 1545
1546 1547 1548 1549 1550 1551 1552 1553 1554 1555 1556 1557 1558 1559 1560
1561 1562 1563 1564 1565 1566 1567 1568 1569 1570 1571 1572 1573 1574 1575
1576 1577 1578 1579 1596 1597 1598 1599 1600 1601 1602 1603 1604 1605 1606
1607 1608 1609 1610 1611 1612 1613 1614 1615 1616 1617 1618 1619 1620 1621
1622 1623 1624 1625 1626 1627 1628 1629 1630 1631 1632 1633 1634 1635 1636
1637 1638 1639 1640 1641 1642 1643 1644 1645 1646 1647 1648 1649 1650 1651
1666 1667 1668 1669 1670 1671 1672 1673 1674 1675 1676 1677 1678 1679 1680
1681 1682 1683 1684 1685 1686 1687 1688 1689 1690 1691 1692 1693 1694 1695
1696 1697 1698 1699 1700 1701 1702 1703 1704 1705 1706 1707 1708 1709 1710
1711 1712 1713 1714 1715 1716 1717 1718 1719 1720 1721 1722 1723 1724 1725
1726 1727 1728 1729 1730 1731 1732 1773 1774 1775 1776 1777 1778 1779 1780
1781 1782 1783 1784 1785 1786 1787 1788 1789 1790 1791 1792 1793 1794 1795
1796 1797 1798 1799 1845 1846 1847 1848 1849 1850 1851 1852 1853 1854 1855
1856 1857 1858 1859 1860 1861 1862 1863 1974 1975 1976 1977 1978 1979 1980
1981 1982 1983 1984 1985 1986 1987 1988 1989 2029 2030 2031 2032 2033 2034
2035 2036 2037 2038 2039 2040 2041 2042 2043 2044 2045 2046 2047 2048 2049
2050 2051 2079 2080 2081 2082 2083 2084 2085 2086 2087 2088 2089 2090 2091
2092 2093 2094 2095 2096 2097 2098 2099 2100 2101 2102 2103 2104 2122 2123
2124 2125 2126 2127 2128 2129 2130 2131 2132 2133 2134 2135 2136 2137 2138
2139 2140 2141 2142 2143 2144 2145 2146 2147 2148 2149 2150 2151 2152 2153
2154 2235 2236 2237 2238 2239 2240 2241 2242 2243 2244 2245 2246 2247 2248
2249 2250 2251 2252 2253 2254 2255 2256 2257 2258 2259 2260 2261 2262 2263
2264 2265 2266 2267 2268 2269 2270 2271 2272 2273 2274 2275 2276 2277 2289
2290 2291 2292 2293 2294 2295 2296 2297 2298 2299 2300 2301 2302 2303 2304
2305 2306 2307 2308 2309 2310 2311 2312 2313 2314 2315 2316 2317 2318 2319
2320 2321 2322 2323 2324 2325 2326 2327 2328 2329 2330 2331 2332 2333 2334
2335 2336 2337 2338 2339 2340 2341 2356 2357 2358 2359 2360 2361 2362 2363
2364 2365 2366 2367 2368 2369 2370 2371 2372 2373 2374 2375 2376 2377 2378
2379 2380 2381 2382 2383 2384 2385 2386 2387 2388 2389 2390 2391 2392 2393
2394 2395 2396 2397 2398 2399 2400 2401 2402 2403 2404 2405 2406 2407 2408
2409 2410 2411 2412 2413 2414 2415 2473 2474 2475 2476 2477 2478 2479 2480
2481 2482 2483 2484 2485 2486 2487 2505 2506 2507 2508 2509 2510 2511 2512
2513 2514 2515 2516 2517 2518 2519 2520 2521 2522 2523 2524 2525 2526 2527
2528 2529 2530 2531 2532 2533 2534 2535 2536 2537 2538 2539 2540 2541 2542
2543 2544 2545 2546 2547 2548 2549 2550 2551 2552 2553 2554 2555 2556 2557
2558 2559 2560 2561 2562 2563 2564 2565 2566 2567 2568 2569 2570 2571 2572
2573 2574 2575 2576 2577 2578 2579 2580 2581 2582 2583 2584 2585 2586 2587
2588 2589 2590 2591 2592 2593 2594 2595 2596 2597 2598 2599 2600 2601 2602
2603 2604 2605 2606 2607 2608 2609 2610 2611 2612 2613 2614 2615 2616 2617
2853 2854 2855 2856 2857 2858 2859 2860 2861 2862 2863 2864 2865 2866 2867
2868 2869 2870 2871 2883 2884 2885 2886 2887 2888 2889 2890 2891 2892 2893
2894 2895 2896 2897 2898 2899 2900 2901 2902 2903 2904 2905 2906 2907 2908
2909 2910 2911 2912 2913 2914 2915 2916 2917 2918 2919 2920 2921 2922 2923
2924 2925 2926 2927 2928 2929 2959 2960 2961 2962 2963 2964 2965 2966 2967
2968 2969 2970 2971 2972 2973 2974 2975 2976 2977 3113 3114 3115 3116 3117
3118 3119 3120 3121 3122 3123 3124 3144 3145 3146 3147 3148 3149 3150 3151
3152 3153 3154 3155 3156 3157 3158 3159 3160 3161 3162 3163 3164 3165 3166
3167 3168 3169 3170 3171 3172 3173 3174 3175 3176 3177 3178 3179 3180 3181
3182 3183 3184 3185 3186 3187 3188 3189 3190 3191 3192 3193 3194 3195 3203
3204 3205 3206 3207 3208 3209 3210 3211 3212 3213 3214 3215 3216 3217 3218
3219 3220 3221 3222 3223 3224 3225 3226 3227 3228 3229 3230 3231 3232 3271
3272 3273 3274 3275 3276 3277 3278 3279 3280 3281 3282 3283 3284 3285 3286
3287 3288 3289 3290 3291 3292 3293 3294 3295 3296 3297 3298 3299 3300 3301
3302 3303 3304 3305 3306 3307 3308 3309 3310 3311 3312 3313 3372 3373 3374
3375 3376 3377 3378 3379 3380 3381 3382 3383 3384 3385 3386 3387 3388 3693
3694 3695 3696 3697 3698 3699 3700 3701 3702 3703 3704 3705 3706 3707 3708
3709 3710 3711 3712 3713 3714 3715 3716 3717 3718 3719 3720 3721 3722 3723
3724 3725 3726 3727 3728 3729 3730
