[ ConsensusPocket ]
33 34 35 36 37 38 39 40 41 42 43 44 45 46 47
48 49 50 51 52 53 54 55 56 57 58 59 60 61 62
63 64 65 66 102 103 104 105 106 107 108 109 110 111 112
113 114 115 116 117 118 119 120 121 122 123 124 125 126 127
135 136 137 138 139 140 141 186 187 188 189 190 191 192 208
209 210 211 212 213 214 215 216 217 218 219 220 221 222 223
224 225 226 227 228 229 230 231 232 233 234 235 236 237 249
250 251 252 253 254 255 437 438 439 440 441 442 443 444 445
446 447 448 449 450 451 452 453 454 455 456 457 458 459 460
461 462 463 464 465 466 467 468 469 470 471 472 473 474 475
476 477 478 479 480 481 482 483 484 485 486 487 488 489 490
491 492 493 494 495 496 497 498 499 500 501 502 503 504 505
506 507 508 509 510 511 512 513 514 515 516 517 518 519 520
521 522 523 524 525 526 527 528 529 530 531 739 740 741 742
743 744 745 746 747 748 749 750 751 752 753 754 755 756 757
758 759 760 761 762 763 783 784 785 786 787 788 789 790 791
792 793 794 795 796 797 798 799 800 801 802 803 804 805 806
807 808 809 810 811 812 813 814 815 840 841 842 843 844 845
846 847 848 849 850 851 852 853 854 855 856 857 858 859 872
873 874 875 876 877 878 879 880 881 882 883 884 885 886 887
888 889 890 891 892 893 894 895 896 897 898 899 900 901 902
903 904 905 906 907 908 909 910 911 912 913 914 915 916 917
918 919 920 921 922 923 924 925 926 927 928 929 930 931 932
933 934 935 936 937 938 939 940 941 942 943 944 945 946 947
948 949 950 951 976 977 978 979 980 981 982 983 984 985 986
987 988 989 990 991 992 993 994 1010 1011 1012 1013 1014 1015 1016
1017 1018 1019 1020 1021 1022 1023 1024 1025 1026 1027 1028 1029 1030 1031
1032 1033 1034 1035 1036 1037 1038 1039 1040 1041 1042 1043 1044 1045 1046
1047 1048 1119 1120 1121 1122 1123 1124 1125 1126 1127 1128 1129 1130 1131
1132 1133 1134 1135 1136 1137 1155 1156 1157 1158 1159 1160 1161 1162 1163
1164 1165 1166 1167 1168 1169 1170 1171 1172 1173 1174 1175 1176 1177 1178
1179 1180 1181 1182 1183 1184 1185 1186 1187 1188 1189 1204 1205 1206 1207
1208 1209 1210 1211 1212 1213 1214 1215 1216 1217 1218 1219 1220 1221 1222
1223 1224 1225 1226 1227 1228 1229 1230 1231 1232 1233 1234 1235 1236 1237
1238 1239 1240 1241 1242 1243 1244 1245 1246 1247 1248 1249 1250 1251 1252
1253 1254 1255 1256 1268 1269 1270 1271 1272 1273 1274 1275 1276 1277 1278
1279 1280 1281 1282 1283 1284 1285 1286 1287 1288 1289 1290 1291 1292 1293
1294 1295 1296 1297 1298 1299 1300 1301 1302 1303 1304 1305 1306 1307 1308
1309 1310 1311 1312 1313 1314 1315 1316 1317 1318 1319 1320 1360 1361 1362
1363 1364 1365 1366 1367 1368 1369 1370 1371 1372 1373 1374 1375 1376 1377
1378 1379 1380 1381 1382 1383 1384 1385 1386 1387 1388 1389 1390 1391 1392
1393 1394 1395 1396 1397 1398 1399 1400 1401 1402 1483 1484 1485 1486 1487
1488 1489 1490 1491 1492 1493 1494 1495 1496 1497 1498 1499 1500 1501 1595
1596 1597 1598 1599 1600 1601 1602 1603 1604 1605 1606 1607 1608 1609 1610
1611 1612 1613 1647 1648 1649 1650 1651 1652 1653 1654 1655 1656 1657 1658
1659 1660 1661 1662 1663 1664 1665 1666 1667 1668 1669 1670 1671 1672 1694
1695 1696 1697 1698 1699 1700 1701 1702 1703 1704 1705 1706 1707 1708 1709
1710 1711 1712 1713 1714 1715 1716 1717 1718 1719 1720 1743 1744 1745 1746
1747 1748 1749 1750 1751 1752 1753 1754 1755 1756 1757 1758 1759 1760 1761
1762 1763 1764 1765 1766 1767 1768 1769 1770 1771 1772 1773 1774 1775 1776
1777 1778 1779 1780 1781 1782 1854 1855 1856 1857 1858 1859 1860 1861 1862
1863 1864 1865 1866 1867 1868 1869 1870 1871 1872 1873 1874 1875 1876 1877
1878 1879 1880 1881 1882 1883 1884 1885 1886 1887 1888 1889 1890 1891 1892
1893 1894 1895 1896 1897 1898 1899 1900 1901 1902 1903 1904 1905 1906 1907
1908 1909 1910 1918 1919 1920 1921 1922 1923 1924 1925 1926 1927 1928 1929
1930 1931 1932 1933 1934 1935 1936 1937 1938 1939 1940 1941 1942 1943 1944
1945 1946 1947 1948 1949 1950 1951 1952 1953 1954 1955 1956 1981 1982 1983
1984 1985 1986 1987 1988 1989 1990 1991 1992 1993 1994 1995 1996 1997 1998
1999 2000 2001 2002 2003 2004 2005 2006 2007 2008 2009 2010 2011 2012 2013
2014 2015 2016 2017 2018 2019 2020 2021 2022 2023 2024 2025 2026 2027 2028
2029 2030 2031 2032 2033 2034 2035 2036 2037 2038 2039 2040 2041 2042 2043
2044 2045 2046 2047 2048 2083 2084 2085 2086 2087 2088 2089 2090 2091 2092
2093 2094 2095 2096 2097 2098 2099 2100 2101 2118 2119 2120 2121 2122 2123
2124 2125 2126 2127 2128 2129 2130 2131 2132 2133 2134 2135 2136 2137 2138
2139 2140 2141 2142 2143 2144 2145 2146 2147 2148 2149 2150 2151 2152 2153
2154 2155 2156 2157 2158 2159 2160 2161 2162 2163 2164 2165 2166 2167 2168
2169 2170 2171 2172 2173 2174 2175 2176 2177 2178 2179 2180 2181 2182 2183
2184 2185 2186 2187 2188 2189 2190 2191 2192 2193 2194 2195 2196 2197 2198
2199 2200 2201 2202 2203 2204 2205 2206 2207 2208 2209 2210 2211 2212 2213
2214 2215 2216 2217 2218 2219 2220 2221 2222 2223 2224 2225 2226 2227 2228
2229 2230 2231 2232 2233 2234 2235 2236 2237 2238 2505 2506 2507 2508 2509
2510 2511 2512 2513 2514 2534 2535 2536 2537 2538 2539 2540 2541 2542 2543
2544 2545 2546 2547 2548 2549 2550 2551 2552 2553 2554 2555 2556 2557 2558
2559 2560 2561 2562 2563 2564 2565 2566 2567 2568 2569 2570 2571 2572 2573
2574 2575 2576 2577 2607 2608 2609 2610 2611 2612 2613 2614 2615 2616 2617
2618 2619 2620 2701 2702 2703 2704 2705 2706 2707 2708 2709 2710 2711 2712
2713 2714 2715 2716 2717 2718 2719 2720 2764 2765 2766 2767 2768 2769 2770
2771 2772 2773 2774 2775 2792 2793 2794 2795 2796 2797 2798 2799 2800 2801
2802 2803 2804 2805 2806 2807 2808 2809 2810 2811 2812 2813 2814 2815 2816
2817 2818 2819 2820 2821 2822 2823 2824 2825 2826 2827 2828 2829 2830 2831
2832 2833 2834 2835 2836 2837 2838 2839 2840 2841 2842 2843 2844 2845 2846
2854 2855 2856 2857 2858 2859 2860 2861 2862 2863 2864 2865 2866 2867 2868
2869 2870 2871 2872 2873 2874 2875 2876 2877 2878 2879 2880 2881 2882 2883
2884 2885 2886 2887 2888 2889 2890 2891 2933 2934 2935 2936 2937 2938 2939
2940 2941 2942 2943 2944 2945 2946 2947 2948 2949 2950 2951 2952 2953 2954
2955 2956 2957 2958 2959 2960 2961 2962 2963 3033 3034 3035 3036 3037 3038
3039 3040 3041 3042 3043 3044 3045 3046 3047 3048 3049 3050 3051 3052 3053
3054 3055 3056 3192 3193 3194 3195 3196 3197 3198 3199 3200 3201 3202 3203
3204 3205 3206 3207 3208 3209 3210 3211 3212 3213 3214 3215 3216 3217 3218
3219 3220 3221 3222 3223 3224 3225 3226
