[ ConsensusPocket ]
42 43 44 45 46 47 48 49 50 51 52 53 54 55 56
57 58 59 60 61 62 63 64 65 66 67 68 69 70 71
72 73 74 75 76 77 78 79 80 81 112 113 114 115 116
117 118 119 120 121 122 123 124 125 126 127 128 129 130 131
132 133 134 135 136 137 162 163 164 165 166 167 168 202 203
204 205 206 207 208 209 210 211 212 213 214 215 232 233 234
235 236 237 238 239 240 241 242 243 244 245 246 247 248 249
250 251 252 253 254 255 256 257 258 259 260 261 262 263 264
265 266 267 268 291 292 293 294 295 296 297 442 443 444 445
446 447 448 449 450 451 452 453 454 455 456 457 458 459 460
461 462 463 464 465 466 467 468 469 470 471 472 473 474 475
476 477 478 479 480 481 482 483 484 485 486 698 699 700 701
702 703 704 705 706 707 708 709 710 711 712 713 714 715 716
717 718 719 720 721 722 723 724 725 726 727 728 729 730 731
732 733 734 735 736 737 762 763 764 765 766 767 768 769 770
771 772 773 774 775 776 777 778 779 780 781 782 783 784 785
786 787 788 789 790 791 792 793 794 834 835 836 837 838 839
840 841 842 843 844 845 846 847 848 849 850 851 852 875 876
877 878 879 880 881 882 883 884 885 886 887 888 889 890 891
892 893 894 895 896 897 898 899 900 901 902 903 904 905 906
907 908 909 910 911 912 913 914 915 916 917 918 919 920 921
922 923 924 925 926 927 928 929 930 931 932 933 934 935 936
937 938 939 940 941 942 943 944 945 946 947 948 949 950 951
952 953 954 955 956 957 958 959 960 961 962 977 978 979 980
981 982 983 984 985 986 987 988 989 990 991 992 993 994 995
996 1014 1015 1016 1017 1018 1019 1020 1021 1022 1023 1024 1025 1026 1027
1028 1029 1030 1031 1032 1033 1034 1035 1036 1037 1038 1039 1040 1041 1042
1043 1044 1045 1046 1047 1048 1049 1050 1051 1052 1053 1054 1055 1056 1057
1058 1059 1060 1061 1062 1063 1064 1065 1066 1067 1068 1069 1070 1071 1072
1073 1145 1146 1147 1148 1149 1150 1151 1152 1153 1154 1155 1156 1157 1158
1159 1160 1161 1162 1163 1188 1189 1190 1191 1192 1193 1194 1195 1196 1197
1198 1199 1200 1201 1202 1203 1204 1205 1206 1207 1208 1209 1210 1211 1212
1213 1214 1215 1216 1217 1218 1219 1220 1221 1222 1239 1240 1241 1242 1243
1244 1245 1246 1247 1248 1249 1250 1251 1252 1253 1254 1255 1256 1257 1258
1259 1260 1261 1262 1263 1264 1265 1266 1267 1268 1269 1270 1271 1272 1273
1274 1275 1276 1277 1278 1279 1280 1281 1282 1283 1298 1299 1300 1301 1302
1303 1304 1305 1306 1307 1308 1309 1310 1311 1312 1313 1314 1315 1316 1317
1318 1319 1320 1321 1322 1323 1324 1325 1326 1327 1328 1329 1330 1331 1332
1333 1334 1335 1336 1337 1338 1339 1340 1341 1394 1395 1396 1397 1398 1399
1400 1401 1402 1403 1404 1405 1406 1407 1408 1409 1410 1411 1412 1413 1414
1415 1416 1417 1418 1419 1420 1421 1422 1481 1482 1483 1484 1485 1486 1487
1488 1489 1490 1491 1492 1493 1494 1495 1496 1497 1498 1499 1612 1613 1614
1615 1616 1617 1618 1619 1620 1621 1622 1623 1624 1625 1626 1627 1628 1629
1630 1631 1658 1659 1660 1661 1662 1663 1664 1665 1666 1667 1668 1669 1670
1671 1672 1673 1674 1675 1676 1677 1678 1679 1680 1681 1682 1683 1684 1685
1686 1687 1688 1719 1720 1721 1722 1723 1724 1725 1726 1727 1728 1729 1730
1731 1732 1733 1734 1735 1736 1737 1738 1739 1740 1741 1742 1743 1744 1762
1763 1764 1765 1766 1767 1768 1769 1770 1771 1772 1773 1774 1775 1776 1777
1778 1779 1780 1781 1782 1783 1784 1785 1786 1787 1788 1789 1790 1791 1792
1793 1794 1795 1796 1797 1882 1883 1884 1885 1886 1887 1888 1889 1890 1891
1892 1893 1894 1895 1896 1897 1898 1899 1900 1901 1902 1903 1904 1905 1906
1907 1908 1909 1910 1911 1912 1913 1914 1915 1916 1917 1918 1919 1920 1921
1922 1923 1924 1925 1926 1927 1928 1929 1930 1931 1944 1945 1946 1947 1948
1949 1950 1951 1952 1953 1954 1955 1956 1957 1958 1959 1960 1961 1962 1963
1964 1965 1966 1967 1968 1969 1970 1971 1972 1973 1974 1975 1976 1977 1978
1979 1980 1981 1982 1983 1984 1985 1986 1987 2012 2013 2014 2015 2016 2017
2018 2019 2020 2021 2022 2023 2024 2025 2026 2027 2028 2029 2030 2031 2032
2033 2034 2035 2036 2037 2038 2039 2040 2041 2042 2043 2044 2045 2046 2047
2048 2049 2050 2051 2052 2053 2054 2055 2056 2057 2058 2059 2060 2061 2062
2063 2064 2065 2066 2067 2068 2069 2070 2071 2072 2073 2074 2075 2076 2077
2078 2079 2080 2081 2082 2083 2084 2085 2086 2087 2088 2089 2090 2127 2128
2129 2130 2131 2132 2133 2148 2149 2150 2151 2152 2153 2154 2155 2156 2157
2158 2159 2160 2161 2162 2163 2164 2165 2166 2167 2168 2169 2170 2171 2172
2173 2174 2175 2176 2177 2178 2179 2180 2181 2182 2183 2184 2185 2186 2187
2188 2189 2190 2191 2192 2193 2194 2195 2196 2197 2198 2199 2200 2201 2202
2203 2204 2205 2206 2207 2208 2209 2210 2211 2212 2213 2214 2215 2216 2217
2218 2219 2220 2221 2222 2223 2224 2225 2226 2227 2228 2229 2230 2231 2232
2233 2234 2235 2236 2237 2238 2239 2240 2241 2242 2243 2244 2245 2246 2247
2248 2249 2250 2251 2252 2253 2254 2255 2256 2257 2258 2259 2260 2261 2262
2263 2264 2265 2266 2267 2268 2269 2270 2271 2272 2273 2274 2275 2276 2277
2278 2279 2280 2281 2282 2283 2870 2871 2872 2873 2874 2875 2876 2877 2878
2879 2880 2881 2882 2883 2900 2901 2902 2903 2904 2905 2906 2907 2908 2909
2910 2911 2912 2913 2914 2915 2916 2917 2918 2919 2920 2921 2922 2923 2924
2925 2926 2927 2928 2929 2930 2931 2932 2933 2934 2935 2936 2937 2938 2939
2940 2941 2942 2943 2944 2974 2975 2976 2977 2978 2979 2980 2981 2982 2983
2984 2985 2986 2987 2988 2989 3059 3060 3061 3062 3063 3064 3065 3066 3067
3068 3069 3070 3071 3072 3073 3074 3075 3076 3077 3078 3131 3132 3133 3134
3135 3136 3137 3138 3139 3140 3141 3142 3162 3163 3164 3165 3166 3167 3168
3169 3170 3171 3172 3173 3174 3175 3176 3177 3178 3179 3180 3181 3182 3183
3184 3185 3186 3187 3188 3189 3190 3191 3192 3193 3194 3195 3196 3197 3198
3199 3200 3201 3202 3203 3204 3205 3206 3207 3208 3209 3210 3211 3212 3213
3214 3215 3223 3224 3225 3226 3227 3228 3229 3230 3231 3232 3233 3234 3235
3236 3237 3238 3239 3240 3241 3242 3243 3244 3245 3246 3247 3248 3249 3250
3251 3252 3293 3294 3295 3296 3297 3298 3299 3300 3301 3302 3303 3304 3305
3306 3307 3308 3309 3310 3311 3312 3313 3314 3315 3316 3317 3318 3319 3320
3321 3322 3323 3324 3385 3386 3387 3388 3389 3390 3391 3392 3393 3394 3395
3396 3397 3398 3535 3536 3537 3538 3539 3540 3541 3542 3543 3544 3545 3546
3547 3548 3549 3550 3551 3552 3553 3554 3555 3556 3557 3558 3559 3560 3561
3562 3563 3564 3565 3566 3567
