[ ConsensusPocket ]
35 36 37 38 39 40 41 42 43 44 45 46 47 48 49
50 51 52 53 54 55 56 57 58 59 60 61 62 63 64
65 66 67 68 69 70 71 72 73 74 116 117 118 119 120
121 122 123 124 125 126 127 128 129 130 131 132 133 134 135
136 137 138 139 140 141 164 165 166 167 168 169 170 205 206
207 208 209 210 211 234 235 236 237 238 239 240 241 242 243
244 245 246 247 248 249 250 251 252 253 254 255 256 257 258
259 260 261 262 263 264 265 266 267 268 288 289 290 291 292
293 294 295 296 297 298 299 300 301 302 303 436 437 438 439
440 441 442 443 444 445 446 447 448 449 450 451 452 453 454
455 456 457 458 459 460 461 462 463 464 465 466 467 468 469
470 471 472 473 474 475 476 477 478 479 480 481 482 483 484
485 486 487 488 489 490 491 492 493 494 495 496 497 498 499
500 501 502 503 504 505 506 507 508 509 510 511 512 513 514
515 516 517 518 519 520 521 522 523 524 525 526 527 528 529
530 531 532 533 534 535 536 537 538 539 540 541 542 543 806
807 808 809 810 811 812 813 814 815 816 817 818 819 820 821
822 823 824 825 826 827 828 829 830 831 856 857 858 859 860
861 862 863 864 865 866 867 868 869 870 871 872 873 874 875
876 877 878 879 880 881 882 883 884 885 886 887 888 889 890
927 928 929 930 931 932 933 934 935 936 937 938 939 940 965
966 967 968 969 970 971 972 973 974 975 976 977 978 979 980
981 982 983 984 985 986 987 988 989 990 991 992 993 994 995
996 997 998 999 1000 1001 1002 1003 1004 1005 1006 1007 1008 1009 1010
1011 1012 1013 1014 1015 1016 1017 1018 1019 1020 1021 1022 1023 1024 1025
1026 1027 1028 1029 1030 1031 1032 1033 1034 1035 1036 1037 1038 1039 1040
1041 1042 1043 1044 1045 1046 1047 1048 1060 1061 1062 1063 1064 1065 1066
1067 1068 1069 1070 1071 1072 1073 1074 1075 1076 1077 1078 1101 1102 1103
1104 1105 1106 1107 1108 1109 1110 1111 1112 1113 1114 1115 1116 1117 1118
1119 1120 1121 1122 1123 1124 1125 1126 1127 1128 1129 1130 1131 1132 1133
1134 1135 1136 1137 1138 1139 1140 1141 1142 1143 1144 1145 1146 1147 1148
1149 1150 1151 1152 1242 1243 1244 1245 1246 1247 1248 1249 1250 1251 1252
1253 1254 1255 1256 1257 1258 1259 1260 1272 1273 1274 1275 1276 1277 1278
1279 1280 1281 1282 1283 1284 1285 1286 1287 1288 1289 1290 1291 1292 1293
1294 1295 1296 1297 1298 1299 1300 1301 1302 1303 1304 1305 1306 1307 1325
1326 1327 1328 1329 1330 1331 1332 1333 1334 1335 1336 1337 1338 1339 1340
1341 1342 1343 1344 1345 1346 1347 1348 1349 1350 1351 1352 1353 1354 1355
1356 1357 1358 1359 1360 1361 1362 1363 1364 1365 1366 1367 1368 1369 1370
1371 1372 1373 1374 1375 1376 1391 1392 1393 1394 1395 1396 1397 1398 1399
1400 1401 1402 1403 1404 1405 1406 1407 1408 1409 1410 1411 1412 1413 1414
1415 1416 1417 1418 1419 1420 1421 1422 1423 1424 1425 1426 1427 1428 1429
1430 1431 1432 1433 1434 1435 1436 1437 1438 1496 1497 1498 1499 1500 1501
1502 1503 1504 1505 1506 1507 1508 1509 1510 1511 1512 1513 1514 1515 1516
1517 1518 1519 1520 1521 1522 1523 1524 1525 1605 1606 1607 1608 1609 1610
1611 1612 1613 1614 1615 1616 1617 1618 1619 1620 1621 1622 1623 1624 1745
1746 1747 1748 1749 1750 1751 1752 1753 1754 1755 1756 1757 1758 1759 1760
1761 1762 1763 1764 1765 1783 1784 1785 1786 1787 1788 1789 1790 1791 1792
1793 1794 1795 1796 1797 1798 1799 1800 1801 1802 1803 1804 1805 1806 1807
1808 1809 1810 1811 1812 1813 1814 1815 1816 1844 1845 1846 1847 1848 1849
1850 1851 1852 1853 1854 1855 1856 1857 1858 1859 1860 1861 1862 1863 1864
1865 1866 1867 1868 1869 1870 1871 1872 1885 1886 1887 1888 1889 1890 1891
1892 1893 1894 1895 1896 1897 1898 1899 1900 1901 1902 1903 1904 1905 1906
1907 1908 1909 1910 1911 1912 1913 1914 1915 1916 1917 1918 1919 1920 1921
1922 1923 1924 2002 2003 2004 2005 2006 2007 2008 2009 2010 2011 2012 2013
2014 2015 2016 2017 2018 2019 2020 2021 2022 2023 2024 2025 2026 2027 2028
2029 2030 2031 2032 2033 2034 2035 2036 2037 2038 2039 2040 2041 2042 2043
2044 2045 2046 2047 2048 2049 2050 2051 2052 2053 2054 2055 2056 2057 2058
2059 2060 2061 2062 2075 2076 2077 2078 2079 2080 2081 2082 2083 2084 2085
2086 2087 2088 2089 2090 2091 2092 2093 2094 2095 2096 2097 2098 2099 2100
2101 2102 2103 2104 2105 2106 2107 2108 2109 2110 2111 2112 2113 2114 2115
2116 2117 2118 2119 2120 2121 2122 2123 2124 2125 2126 2127 2128 2129 2130
2131 2132 2133 2134 2150 2151 2152 2153 2154 2155 2156 2157 2158 2159 2160
2161 2162 2163 2164 2165 2166 2167 2168 2169 2170 2171 2172 2173 2174 2175
2176 2177 2178 2179 2180 2181 2182 2183 2184 2185 2186 2187 2188 2189 2190
2191 2192 2193 2194 2195 2196 2197 2198 2199 2200 2201 2202 2203 2204 2205
2206 2207 2208 2209 2210 2211 2212 2213 2214 2215 2216 2217 2218 2265 2266
2267 2268 2269 2270 2271 2289 2290 2291 2292 2293 2294 2295 2296 2297 2298
2299 2300 2301 2302 2303 2304 2305 2306 2307 2308 2309 2310 2311 2312 2313
2314 2315 2316 2317 2318 2319 2320 2321 2322 2323 2324 2325 2326 2327 2328
2329 2330 2331 2332 2333 2334 2335 2336 2337 2338 2339 2340 2341 2342 2343
2344 2345 2346 2347 2348 2349 2350 2351 2352 2353 2354 2355 2356 2357 2358
2359 2360 2361 2362 2363 2364 2365 2366 2367 2368 2369 2370 2371 2372 2373
2374 2375 2376 2377 2378 2379 2380 2381 2382 2383 2384 2385 2386 2387 2388
2389 2390 2391 2392 2393 2394 2395 2396 2397 2398 2399 2400 2401 2402 2403
2404 2405 2406 2407 2408 2409 2410 2411 2412 2413 2414 2415 2416 2417 2418
2419 2420 2660 2661 2662 2663 2664 2665 2666 2667 2668 2669 2670 2671 2672
2673 2689 2690 2691 2692 2693 2694 2695 2696 2697 2698 2699 2700 2701 2702
2703 2704 2705 2706 2707 2708 2709 2710 2711 2712 2713 2714 2715 2716 2717
2718 2719 2720 2721 2722 2723 2724 2725 2726 2727 2728 2729 2730 2731 2732
2733 2734 2735 2736 2737 2738 2768 2769 2770 2771 2772 2773 2774 2775 2776
2777 2778 2779 2780 2781 2782 2783 2856 2857 2858 2859 2860 2861 2862 2863
2864 2865 2866 2867 2868 2869 2870 2871 2872 2873 2874 2875 2876 2934 2935
2936 2937 2938 2939 2940 2941 2942 2943 2944 2945 2970 2971 2972 2973 2974
2975 2976 2977 2978 2979 2980 2981 2982 2983 2984 2985 2986 2987 2988 2989
2990 2991 2992 2993 2994 2995 2996 2997 2998 2999 3000 3001 3002 3003 3004
3005 3006 3007 3008 3009 3010 3011 3012 3013 3014 3015 3016 3017 3018 3019
3027 3028 3029 3030 3031 3032 3033 3034 3035 3036 3037 3038 3039 3040 3041
3042 3043 3044 3045 3046 3047 3048 3049 3050 3051 3052 3053 3054 3055 3056
3057 3058 3097 3098 3099 3100 3101 3102 3103 3104 3105 3106 3107 3108 3109
3110 3111 3112 3113 3114 3115 3116 3117 3118 3119 3120 3121 3122 3123 3124
3125 3126 3127 3128 3188 3189 3190 3191 3192 3193 3194 3195 3196 3197 3198
3199 3200 3201 3202 3203 3204 3205 3206 3359 3360 3361 3362 3363 3364 3365
3366 3367 3368 3369 3370 3371 3372 3373 3374 3375 3376 3377 3378 3379 3380
3381 3382 3383 3384 3385 3386 3387 3388 3389 3390 3391 3392 3393 3394 3395
3396 3397
