[ ConsensusPocket ]
41 42 43 44 45 46 47 48 49 50 51 52 53 54 55
56 57 58 59 60 61 62 63 64 65 66 67 68 69 97
98 99 100 101 102 103 104 105 106 107 108 109 110 111 112
113 114 115 116 117 118 119 120 121 122 147 148 149 150 151
152 153 189 190 191 192 193 194 195 215 216 217 218 219 220
221 222 223 224 225 226 227 228 229 230 231 232 233 234 235
236 237 238 239 240 241 242 243 244 245 246 247 272 273 274
275 276 277 278 279 280 281 282 408 409 410 411 412 413 414
415 416 417 418 419 420 421 422 423 424 425 426 427 428 429
430 431 432 433 434 435 436 437 438 439 440 441 442 443 444
445 446 447 448 449 450 451 452 453 454 455 456 457 458 459
460 461 462 463 464 465 466 467 468 469 470 471 472 473 474
475 476 477 478 479 480 481 482 483 484 485 486 487 488 489
490 491 492 493 494 495 496 497 498 499 500 501 502 503 504
505 506 507 508 509 510 511 512 513 719 720 721 722 723 724
725 726 727 728 729 730 731 732 733 734 735 736 737 738 739
740 741 742 743 744 745 746 747 748 749 750 751 752 764 765
766 767 768 769 770 771 772 773 774 775 776 777 778 779 780
781 782 783 784 785 786 787 788 789 790 791 792 793 794 795
796 797 798 799 800 801 835 836 837 838 839 840 841 842 843
844 869 870 871 872 873 874 875 876 877 878 879 880 881 882
883 884 885 886 887 888 889 890 891 892 893 894 895 896 897
898 899 900 901 902 903 904 905 906 907 908 909 910 911 912
913 914 915 916 917 918 919 920 921 922 923 924 925 926 927
928 929 930 931 932 933 934 935 936 937 938 939 940 941 942
943 944 945 946 947 948 949 950 951 952 953 954 955 956 957
958 959 960 961 979 980 981 982 983 984 985 986 987 988 989
990 991 992 993 994 995 996 997 1015 1016 1017 1018 1019 1020 1021
1022 1023 1024 1025 1026 1027 1028 1029 1030 1031 1032 1033 1034 1035 1036
1037 1038 1039 1040 1041 1042 1043 1044 1045 1046 1047 1048 1049 1050 1051
1052 1053 1054 1055 1056 1057 1058 1059 1060 1134 1135 1136 1137 1138 1139
1140 1141 1142 1143 1144 1145 1146 1147 1148 1149 1150 1151 1152 1169 1170
1171 1172 1173 1174 1175 1176 1177 1178 1179 1180 1181 1182 1183 1184 1185
1186 1187 1188 1189 1190 1191 1192 1193 1194 1195 1196 1197 1198 1199 1200
1201 1202 1203 1204 1225 1226 1227 1228 1229 1230 1231 1232 1233 1234 1235
1236 1237 1238 1239 1240 1241 1242 1243 1244 1245 1246 1247 1248 1249 1250
1251 1252 1253 1254 1255 1256 1257 1258 1259 1260 1261 1262 1263 1264 1265
1266 1267 1268 1269 1270 1271 1272 1273 1274 1275 1276 1277 1278 1290 1291
1292 1293 1294 1295 1296 1297 1298 1299 1300 1301 1302 1303 1304 1305 1306
1307 1308 1309 1310 1311 1312 1313 1314 1315 1316 1317 1318 1319 1320 1321
1322 1323 1324 1325 1326 1327 1328 1329 1330 1331 1332 1333 1334 1335 1336
1337 1338 1339 1340 1341 1342 1343 1344 1345 1346 1406 1407 1408 1409 1410
1411 1412 1413 1414 1415 1416 1417 1418 1419 1420 1421 1422 1423 1424 1425
1426 1427 1428 1429 1430 1431 1432 1433 1434 1435 1436 1437 1438 1509 1510
1511 1512 1513 1514 1515 1516 1517 1518 1519 1520 1521 1522 1523 1524 1525
1526 1527 1642 1643 1644 1645 1646 1647 1648 1649 1650 1651 1652 1653 1654
1655 1656 1657 1658 1659 1660 1661 1662 1696 1697 1698 1699 1700 1701 1702
1703 1704 1705 1706 1707 1708 1709 1710 1711 1712 1713 1714 1715 1716 1717
1718 1719 1720 1721 1722 1723 1724 1725 1726 1727 1728 1755 1756 1757 1758
1759 1760 1761 1762 1763 1764 1765 1766 1767 1768 1769 1770 1771 1772 1773
1774 1775 1776 1777 1778 1779 1780 1781 1782 1783 1801 1802 1803 1804 1805
1806 1807 1808 1809 1810 1811 1812 1813 1814 1815 1816 1817 1818 1819 1820
1821 1822 1823 1824 1825 1826 1827 1828 1829 1830 1831 1832 1833 1834 1835
1836 1837 1838 1839 1918 1919 1920 1921 1922 1923 1924 1925 1926 1927 1928
1929 1930 1931 1932 1933 1934 1935 1936 1937 1938 1939 1940 1941 1942 1943
1944 1945 1946 1947 1948 1949 1950 1951 1952 1953 1954 1955 1956 1957 1958
1959 1960 1961 1974 1975 1976 1977 1978 1979 1980 1981 1982 1983 1984 1985
1986 1987 1988 1989 1990 1991 1992 1993 1994 1995 1996 1997 1998 1999 2000
2001 2002 2003 2004 2005 2006 2007 2008 2009 2010 2011 2012 2013 2014 2015
2016 2017 2018 2019 2020 2021 2022 2023 2024 2025 2026 2027 2028 2029 2030
2046 2047 2048 2049 2050 2051 2052 2053 2054 2055 2056 2057 2058 2059 2060
2061 2062 2063 2064 2065 2066 2067 2068 2069 2070 2071 2072 2073 2074 2075
2076 2077 2078 2079 2080 2081 2082 2083 2084 2085 2086 2087 2088 2089 2090
2091 2092 2093 2094 2095 2096 2097 2098 2099 2100 2101 2102 2103 2104 2105
2106 2107 2108 2109 2110 2111 2112 2113 2114 2115 2116 2117 2118 2209 2210
2211 2212 2213 2214 2215 2216 2217 2218 2219 2234 2235 2236 2237 2238 2239
2240 2241 2242 2243 2244 2245 2246 2247 2248 2249 2250 2251 2252 2253 2254
2255 2256 2257 2258 2259 2260 2261 2262 2263 2264 2265 2266 2267 2268 2269
2270 2271 2272 2273 2274 2275 2276 2277 2278 2279 2280 2281 2282 2283 2284
2285 2286 2287 2288 2289 2290 2291 2292 2293 2294 2295 2296 2297 2298 2299
2300 2301 2302 2303 2304 2305 2306 2307 2308 2309 2310 2311 2312 2313 2314
2315 2316 2317 2318 2319 2320 2321 2322 2323 2324 2325 2326 2327 2328 2329
2330 2331 2332 2333 2334 2335 2336 2337 2338 2339 2340 2341 2342 2343 2344
2345 2346 2347 2348 2349 2350 2351 2352 2353 2354 2355 2356 2357 2358 2359
2360 2361 2362 2363 2364 2365 2366 2367 2368 2369 2370 2371 2637 2638 2639
2640 2641 2642 2643 2644 2645 2646 2647 2648 2649 2650 2666 2667 2668 2669
2670 2671 2672 2673 2674 2675 2676 2677 2678 2679 2680 2681 2682 2683 2684
2685 2686 2687 2688 2689 2690 2691 2692 2693 2694 2695 2696 2697 2698 2699
2700 2701 2702 2703 2704 2705 2706 2707 2708 2709 2710 2711 2712 2713 2714
2715 2716 2717 2747 2748 2749 2750 2751 2752 2753 2754 2755 2756 2757 2758
2759 2760 2761 2762 2842 2843 2844 2845 2846 2847 2848 2849 2850 2851 2852
2853 2854 2855 2856 2857 2907 2908 2909 2910 2911 2912 2913 2914 2915 2916
2917 2918 2936 2937 2938 2939 2940 2941 2942 2943 2944 2945 2946 2947 2948
2949 2950 2951 2952 2953 2954 2955 2956 2957 2958 2959 2960 2961 2962 2963
2964 2965 2966 2967 2968 2969 2970 2971 2972 2973 2974 2975 2976 2977 2978
2979 2980 2981 2982 2983 2984 2985 2986 2987 2988 2989 2997 2998 2999 3000
3001 3002 3003 3004 3005 3006 3007 3008 3009 3010 3011 3012 3013 3014 3015
3016 3017 3018 3019 3020 3021 3022 3023 3024 3025 3026 3027 3028 3029 3067
3068 3069 3070 3071 3072 3073 3074 3075 3076 3077 3078 3079 3080 3081 3082
3083 3084 3085 3086 3087 3088 3089 3090 3091 3092 3093 3094 3095 3096 3097
3098 3099 3100 3101 3158 3159 3160 3161 3162 3163 3164 3165 3166 3167 3168
3169 3170 3171 3312 3313 3314 3315 3316 3317 3318 3319 3320 3321 3322 3323
3324 3325 3326 3327 3328 3329 3330 3331 3332 3333 3334 3335 3336 3337 3338
3339 3340 3341 3342 3343 3344 3345 3346 3347 3348 3349
