; ligand_acpype_input_GMX_OPLS.itp created by acpype (v: 2023.10.27) on Tue Oct  6 10:31:00 2026

; For OPLS atomtypes manual fine tuning
; AC_at:OPLS_at:OPLScode: Possible_Alternatives (see ffoplsaa.atp and ffoplsaanb.itp)
; c5:x:opls_x: []
; c3:CT:opls_135: ['136', '137', '149', '157', '158', '206', '209', '210', '223B', '224B', '245', '246', '274', '283', '284', '285', '292', '292B', '293B', '296', '307', '308', '505']
; os:x:opls_x: []
; p5:x:opls_x: []
; o:O:opls_236: ['272']
; na:NA:opls_503: ['512']
; cc:C*:opls_500: ['506', '507', '508', '514']
; nd:NB:opls_511: []
; ca:CA:opls_145: ['166', '501', '502']
; nb:x:opls_x: []
; nv:x:opls_x: []
; oh:OH:opls_154: ['167']
; h2:x:opls_x: []
; h1:HC:opls_140: []
; h5:HA:opls_146: []
; hn:H:opls_240: ['241', '290', '301', '304', '310', '504', '513']
; ho:HO:opls_155: ['168']

[ moleculetype ]
;name            nrexcl
 ligand_acpype_input 3

[ atoms ]
;   nr  type  resi  res  atom  cgnr     charge      mass       ; qtot   bond_type
     1 opls_x     1   ATP   C1'    1     0.240800      0.00000 ; qtot  0.241  x   
     2 opls_x     1   ATP   C2'    2     0.115100      0.00000 ; qtot  0.356  x   
     3 opls_x     1   ATP   C3'    3     0.112100      0.00000 ; qtot  0.468  x   
     4 opls_x     1   ATP   C4'    4     0.097100      0.00000 ; qtot  0.565  x   
     5 opls_135     1   ATP   C5'    5     0.168400     12.01100 ; qtot  0.733  CT  
     6 opls_x     1   ATP   O5'    6    -0.606200      0.00000 ; qtot  0.127  x   
     7 opls_x     1   ATP    PA    7     1.607800      0.00000 ; qtot  1.735  x   
     8 opls_x     1   ATP  OOPA    8    -0.788800      0.00000 ; qtot  0.946  x   
     9 opls_x     1   ATP    PB    9     1.676801      0.00000 ; qtot  2.623  x   
    10 opls_x     1   ATP  OOPB   10    -0.797800      0.00000 ; qtot  1.825  x   
    11 opls_x     1   ATP    PG   11     1.447900      0.00000 ; qtot  3.273  x   
    12 opls_236     1   ATP  OOPG   12    -0.947167     15.99940 ; qtot  2.326  O   
    13 opls_x     1   ATP   O4'   13    -0.435600      0.00000 ; qtot  1.890  x   
    14 opls_236     1   ATP    O1   14    -0.671000     15.99940 ; qtot  1.219  O   
    15 opls_236     1   ATP    O6   15    -0.671000     15.99940 ; qtot  0.548  O   
    16 opls_236     1   ATP    O7   16    -0.918000     15.99940 ; qtot -0.370  O   
    17 opls_236     1   ATP    O8   17    -0.918000     15.99940 ; qtot -1.288  O   
    18 opls_236     1   ATP    O9   18    -0.947167     15.99940 ; qtot -2.235  O   
    19 opls_236     1   ATP   O10   19    -0.947167     15.99940 ; qtot -3.182  O   
    20 opls_503     1   ATP    N9   20    -0.275000     14.00670 ; qtot -3.457  NA  
    21 opls_500     1   ATP    C8   21     0.346700     12.01100 ; qtot -3.110  C*  
    22 opls_511     1   ATP    N7   22    -0.773100     14.00670 ; qtot -3.883  NB  
    23 opls_145     1   ATP    C5   23    -0.111200     12.01100 ; qtot -3.995  CA  
    24 opls_145     1   ATP    C4   24     0.386800     12.01100 ; qtot -3.608  CA  
    25 opls_x     1   ATP    N3   25    -0.706000      0.00000 ; qtot -4.314  x   
    26 opls_145     1   ATP    C2   26     0.557900     12.01100 ; qtot -3.756  CA  
    27 opls_x     1   ATP    N1   27    -0.781000      0.00000 ; qtot -4.537  x   
    28 opls_145     1   ATP    C6   28     0.530200     12.01100 ; qtot -4.007  CA  
    29 opls_x     1   ATP    N6   29    -0.891500      0.00000 ; qtot -4.898  x   
    30 opls_154     1   ATP   O2'   30    -0.618800     15.99940 ; qtot -5.517  OH  
    31 opls_154     1   ATP   O3'   31    -0.673800     15.99940 ; qtot -6.191  OH  
    32 opls_x     1   ATP   H1'   32     0.041700      0.00000 ; qtot -6.149  x   
    33 opls_140     1   ATP   H2'   33     0.108700      1.00800 ; qtot -6.040  HC  
    34 opls_140     1   ATP   H3'   34     0.079700      1.00800 ; qtot -5.961  HC  
    35 opls_140     1   ATP   H4'   35     0.061700      1.00800 ; qtot -5.899  HC  
    36 opls_140     1   ATP  HH5'   36     0.071200      1.00800 ; qtot -5.828  HC  
    37 opls_140     1   ATP    H5   37     0.071200      1.00800 ; qtot -5.757  HC  
    38 opls_146     1   ATP    H8   38     0.134800      1.00800 ; qtot -5.622  HA  
    39 opls_146     1   ATP    H2   39    -0.001900      1.00800 ; qtot -5.624  HA  
    40 opls_240     1   ATP   HH6   40     0.350800      1.00800 ; qtot -5.273  H   
    41 opls_240     1   ATP    H6   41     0.350800      1.00800 ; qtot -4.922  H   
    42 opls_155     1   ATP  HO2'   42     0.414000      1.00800 ; qtot -4.508  HO  
    43 opls_155     1   ATP  HO3'   43     0.508000      1.00800 ; qtot -4.000  HO  

[ bonds ]
;   ai     aj funct   r             k
     1      2   1 ;    1.5483e-01    1.8418e+05 ;    C1' - C2'         x - x     
     1     13   1 ;    1.4346e-01    2.3063e+05 ;    C1' - O4'         x - x     
     1     20   1 ;    1.4571e-01    2.1790e+05 ;    C1' - N9          x - NA    
     1     32   1 ;    1.0955e-01    2.8977e+05 ;    C1' - H1'         x - x     
     2      3   1 ;    1.5483e-01    1.8418e+05 ;    C2' - C3'         x - x     
     2     30   1 ;    1.4194e-01    2.4241e+05 ;    C2' - O2'         x - OH    
     2     33   1 ;    1.0972e-01    2.8768e+05 ;    C2' - H2'         x - HC    
     3      4   1 ;    1.5483e-01    1.8418e+05 ;    C3' - C4'         x - x     
     3     31   1 ;    1.4194e-01    2.4241e+05 ;    C3' - O3'         x - OH    
     3     34   1 ;    1.0972e-01    2.8768e+05 ;    C3' - H3'         x - HC    
     4      5   1 ;    1.5372e-01    1.9049e+05 ;    C4' - C5'         x - CT    
     4     13   1 ;    1.4346e-01    2.3063e+05 ;    C4' - O4'         x - x     
     4     35   1 ;    1.0972e-01    2.8768e+05 ;    C4' - H4'         x - HC    
     5      6   1 ;    1.4273e-01    2.3620e+05 ;    C5' - O5'        CT - x     
     5     36   1 ;    1.0969e-01    2.8804e+05 ;    C5' - HH5'       CT - HC    
     5     37   1 ;    1.0969e-01    2.8804e+05 ;    C5' - H5         CT - HC    
     6      7   1 ;    1.6182e-01    3.2434e+05 ;    O5' - PA          x - x     
     7      8   1 ;    1.6182e-01    3.2434e+05 ;     PA - OOPA        x - x     
     7     14   1 ;    1.4885e-01    4.7951e+05 ;     PA - O1          x - O     
     7     15   1 ;    1.4885e-01    4.7951e+05 ;     PA - O6          x - O     
     8      9   1 ;    1.6182e-01    3.2434e+05 ;   OOPA - PB          x - x     
     9     10   1 ;    1.6182e-01    3.2434e+05 ;     PB - OOPB        x - x     
     9     16   1 ;    1.4885e-01    4.7951e+05 ;     PB - O7          x - O     
     9     17   1 ;    1.4885e-01    4.7951e+05 ;     PB - O8          x - O     
    10     11   1 ;    1.6182e-01    3.2434e+05 ;   OOPB - PG          x - x     
    11     12   1 ;    1.4885e-01    4.7951e+05 ;     PG - OOPG        x - O     
    11     18   1 ;    1.4885e-01    4.7951e+05 ;     PG - O9          x - O     
    11     19   1 ;    1.4885e-01    4.7951e+05 ;     PG - O10         x - O     
    20     21   1 ;    1.3803e-01    2.8075e+05 ;     N9 - C8         NA - C*    
    20     24   1 ;    1.3858e-01    2.7557e+05 ;     N9 - C4         NA - CA    
    21     22   1 ;    1.3158e-01    3.5122e+05 ;     C8 - N7         C* - NB    
    21     38   1 ;    1.0820e-01    3.0708e+05 ;     C8 - H8         C* - HA    
    22     23   1 ;    1.3864e-01    2.7501e+05 ;     N7 - C5         NB - CA    
    23     24   1 ;    1.3986e-01    2.9644e+05 ;     C5 - C4         CA - CA    
    23     28   1 ;    1.3986e-01    2.9644e+05 ;     C5 - C6         CA - CA    
    24     25   1 ;    1.3392e-01    3.2341e+05 ;     C4 - N3         CA - x     
    25     26   1 ;    1.3392e-01    3.2341e+05 ;     N3 - C2          x - CA    
    26     27   1 ;    1.3392e-01    3.2341e+05 ;     C2 - N1         CA - x     
    26     39   1 ;    1.0880e-01    2.9923e+05 ;     C2 - H2         CA - HA    
    27     28   1 ;    1.3392e-01    3.2341e+05 ;     N1 - C6          x - CA    
    28     29   1 ;    1.3744e-01    2.8644e+05 ;     C6 - N6         CA - x     
    29     40   1 ;    1.0114e-01    3.9961e+05 ;     N6 - HH6         x - H     
    29     41   1 ;    1.0114e-01    3.9961e+05 ;     N6 - H6          x - H     
    30     42   1 ;    9.7250e-02    4.4811e+05 ;    O2' - HO2'       OH - HO    
    31     43   1 ;    9.7250e-02    4.4811e+05 ;    O3' - HO3'       OH - HO    

[ pairs ]
;   ai     aj    funct
     1      5      1 ;    C1' - C5'   
     1     22      1 ;    C1' - N7    
     1     23      1 ;    C1' - C5    
     1     25      1 ;    C1' - N3    
     1     31      1 ;    C1' - O3'   
     1     34      1 ;    C1' - H3'   
     1     35      1 ;    C1' - H4'   
     1     38      1 ;    C1' - H8    
     1     42      1 ;    C1' - HO2'  
     2      5      1 ;    C2' - C5'   
     2     21      1 ;    C2' - C8    
     2     24      1 ;    C2' - C4    
     2     35      1 ;    C2' - H4'   
     2     43      1 ;    C2' - HO3'  
     3      6      1 ;    C3' - O5'   
     3     36      1 ;    C3' - HH5'  
     3     37      1 ;    C3' - H5    
     3     42      1 ;    C3' - HO2'  
     4      7      1 ;    C4' - PA    
     4     30      1 ;    C4' - O2'   
     4     33      1 ;    C4' - H2'   
     4     43      1 ;    C4' - HO3'  
     5      8      1 ;    C5' - OOPA  
     5     14      1 ;    C5' - O1    
     5     15      1 ;    C5' - O6    
     5     31      1 ;    C5' - O3'   
     5     34      1 ;    C5' - H3'   
     6      9      1 ;    O5' - PB    
     6     13      1 ;    O5' - O4'   
     6     35      1 ;    O5' - H4'   
     7     10      1 ;     PA - OOPB  
     7     16      1 ;     PA - O7    
     7     17      1 ;     PA - O8    
     7     36      1 ;     PA - HH5'  
     7     37      1 ;     PA - H5    
     8     11      1 ;   OOPA - PG    
     9     12      1 ;     PB - OOPG  
     9     14      1 ;     PB - O1    
     9     15      1 ;     PB - O6    
     9     18      1 ;     PB - O9    
     9     19      1 ;     PB - O10   
    11     16      1 ;     PG - O7    
    11     17      1 ;     PG - O8    
    13     21      1 ;    O4' - C8    
    13     24      1 ;    O4' - C4    
    13     30      1 ;    O4' - O2'   
    13     31      1 ;    O4' - O3'   
    13     33      1 ;    O4' - H2'   
    13     34      1 ;    O4' - H3'   
    13     36      1 ;    O4' - HH5'  
    13     37      1 ;    O4' - H5    
    20      3      1 ;     N9 - C3'   
    20      4      1 ;     N9 - C4'   
    20     26      1 ;     N9 - C2    
    20     28      1 ;     N9 - C6    
    20     30      1 ;     N9 - O2'   
    20     33      1 ;     N9 - H2'   
    21     25      1 ;     C8 - N3    
    21     28      1 ;     C8 - C6    
    22     25      1 ;     N7 - N3    
    22     27      1 ;     N7 - N1    
    22     29      1 ;     N7 - N6    
    23     26      1 ;     C5 - C2    
    23     38      1 ;     C5 - H8    
    23     40      1 ;     C5 - HH6   
    23     41      1 ;     C5 - H6    
    24     27      1 ;     C4 - N1    
    24     29      1 ;     C4 - N6    
    24     38      1 ;     C4 - H8    
    24     39      1 ;     C4 - H2    
    25     28      1 ;     N3 - C6    
    26     29      1 ;     C2 - N6    
    27     40      1 ;     N1 - HH6   
    27     41      1 ;     N1 - H6    
    28     39      1 ;     C6 - H2    
    30     31      1 ;    O2' - O3'   
    30     34      1 ;    O2' - H3'   
    31     33      1 ;    O3' - H2'   
    31     35      1 ;    O3' - H4'   
    32      3      1 ;    H1' - C3'   
    32      4      1 ;    H1' - C4'   
    32     21      1 ;    H1' - C8    
    32     24      1 ;    H1' - C4    
    32     30      1 ;    H1' - O2'   
    32     33      1 ;    H1' - H2'   
    33     34      1 ;    H2' - H3'   
    33     42      1 ;    H2' - HO2'  
    34     35      1 ;    H3' - H4'   
    34     43      1 ;    H3' - HO3'  
    35     36      1 ;    H4' - HH5'  
    35     37      1 ;    H4' - H5    

[ angles ]
;   ai     aj     ak    funct   theta         cth
     1      2      3      1 ;    1.0383e+02    5.1748e+02 ;    C1' - C2'  - C3'       x -    x - x   
     1      2     30      1 ;    1.1162e+02    6.3455e+02 ;    C1' - C2'  - O2'       x -    x - OH  
     1      2     33      1 ;    1.1117e+02    3.5690e+02 ;    C1' - C2'  - H2'       x -    x - HC  
     1     13      4      1 ;    1.0926e+02    7.4986e+02 ;    C1' - O4'  - C4'       x -    x - x   
     1     20     21      1 ;    1.2654e+02    6.3128e+02 ;    C1' - N9   - C8        x -   NA - C*  
     1     20     24      1 ;    1.2776e+02    6.2718e+02 ;    C1' - N9   - C4        x -   NA - CA  
     2      1     13      1 ;    1.0614e+02    6.4793e+02 ;    C2' - C1'  - O4'       x -    x - x   
     2      1     20      1 ;    1.1485e+02    5.3714e+02 ;    C2' - C1'  - N9        x -    x - NA  
     2      1     32      1 ;    1.1053e+02    3.5798e+02 ;    C2' - C1'  - H1'       x -    x - x   
     2      3      4      1 ;    1.0383e+02    5.1748e+02 ;    C2' - C3'  - C4'       x -    x - x   
     2      3     31      1 ;    1.1162e+02    6.3455e+02 ;    C2' - C3'  - O3'       x -    x - OH  
     2      3     34      1 ;    1.1117e+02    3.5690e+02 ;    C2' - C3'  - H3'       x -    x - HC  
     2     30     42      1 ;    1.0717e+02    5.4727e+02 ;    C2' - O2'  - HO2'      x -   OH - HO  
     3      2     30      1 ;    1.1162e+02    6.3455e+02 ;    C3' - C2'  - O2'       x -    x - OH  
     3      2     33      1 ;    1.1117e+02    3.5690e+02 ;    C3' - C2'  - H2'       x -    x - HC  
     3      4      5      1 ;    1.1360e+02    4.9647e+02 ;    C3' - C4'  - C5'       x -    x - CT  
     3      4     13      1 ;    1.0614e+02    6.4793e+02 ;    C3' - C4'  - O4'       x -    x - x   
     3      4     35      1 ;    1.1117e+02    3.5690e+02 ;    C3' - C4'  - H4'       x -    x - HC  
     3     31     43      1 ;    1.0717e+02    5.4727e+02 ;    C3' - O3'  - HO3'      x -   OH - HO  
     4      3     31      1 ;    1.1162e+02    6.3455e+02 ;    C4' - C3'  - O3'       x -    x - OH  
     4      3     34      1 ;    1.1117e+02    3.5690e+02 ;    C4' - C3'  - H3'       x -    x - HC  
     4      5      6      1 ;    1.0752e+02    6.4785e+02 ;    C4' - C5'  - O5'       x -   CT - x   
     4      5     36      1 ;    1.0938e+02    3.6217e+02 ;    C4' - C5'  - HH5'      x -   CT - HC  
     4      5     37      1 ;    1.0938e+02    3.6217e+02 ;    C4' - C5'  - H5        x -   CT - HC  
     5      4     13      1 ;    1.0897e+02    6.4224e+02 ;    C5' - C4'  - O4'      CT -    x - x   
     5      4     35      1 ;    1.0924e+02    3.6242e+02 ;    C5' - C4'  - H4'      CT -    x - HC  
     5      6      7      1 ;    1.1970e+02    4.7396e+02 ;    C5' - O5'  - PA       CT -    x - x   
     6      5     36      1 ;    1.1034e+02    4.7028e+02 ;    O5' - C5'  - HH5'      x -   CT - HC  
     6      5     37      1 ;    1.1034e+02    4.7028e+02 ;    O5' - C5'  - H5        x -   CT - HC  
     6      7      8      1 ;    1.0172e+02    8.6123e+02 ;    O5' - PA   - OOPA      x -    x - x   
     6      7     14      1 ;    1.1544e+02    8.3931e+02 ;    O5' - PA   - O1        x -    x - O   
     6      7     15      1 ;    1.1544e+02    8.3931e+02 ;    O5' - PA   - O6        x -    x - O   
     7      8      9      1 ;    1.2552e+02    3.1062e+02 ;     PA - OOPA - PB        x -    x - x   
     8      7     14      1 ;    1.1544e+02    8.3931e+02 ;   OOPA - PA   - O1        x -    x - O   
     8      7     15      1 ;    1.1544e+02    8.3931e+02 ;   OOPA - PA   - O6        x -    x - O   
     8      9     10      1 ;    1.0172e+02    8.6123e+02 ;   OOPA - PB   - OOPB      x -    x - x   
     8      9     16      1 ;    1.1544e+02    8.3931e+02 ;   OOPA - PB   - O7        x -    x - O   
     8      9     17      1 ;    1.1544e+02    8.3931e+02 ;   OOPA - PB   - O8        x -    x - O   
     9     10     11      1 ;    1.2552e+02    3.1062e+02 ;     PB - OOPB - PG        x -    x - x   
    10      9     16      1 ;    1.1544e+02    8.3931e+02 ;   OOPB - PB   - O7        x -    x - O   
    10      9     17      1 ;    1.1544e+02    8.3931e+02 ;   OOPB - PB   - O8        x -    x - O   
    10     11     12      1 ;    1.1544e+02    8.3931e+02 ;   OOPB - PG   - OOPG      x -    x - O   
    10     11     18      1 ;    1.1544e+02    8.3931e+02 ;   OOPB - PG   - O9        x -    x - O   
    10     11     19      1 ;    1.1544e+02    8.3931e+02 ;   OOPB - PG   - O10       x -    x - O   
    12     11     18      1 ;    1.1829e+02    8.6826e+02 ;   OOPG - PG   - O9        O -    x - O   
    12     11     19      1 ;    1.1829e+02    8.6826e+02 ;   OOPG - PG   - O10       O -    x - O   
    13      1     20      1 ;    1.0927e+02    7.0124e+02 ;    O4' - C1'  - N9        x -    x - NA  
    13      1     32      1 ;    1.0947e+02    4.7028e+02 ;    O4' - C1'  - H1'       x -    x - x   
    13      4     35      1 ;    1.0846e+02    4.7229e+02 ;    O4' - C4'  - H4'       x -    x - HC  
    14      7     15      1 ;    1.1829e+02    8.6826e+02 ;     O1 - PA   - O6        O -    x - O   
    16      9     17      1 ;    1.1829e+02    8.6826e+02 ;     O7 - PB   - O8        O -    x - O   
    18     11     19      1 ;    1.1829e+02    8.6826e+02 ;     O9 - PG   - O10       O -    x - O   
    20      1     32      1 ;    1.0616e+02    4.0911e+02 ;     N9 - C1'  - H1'      NA -    x - x   
    20     21     22      1 ;    1.1201e+02    6.4408e+02 ;     N9 - C8   - N7       NA -   C* - NB  
    20     21     38      1 ;    1.2178e+02    4.0024e+02 ;     N9 - C8   - H8       NA -   C* - HA  
    20     24     23      1 ;    1.2031e+02    5.6752e+02 ;     N9 - C4   - C5       NA -   CA - CA  
    20     24     25      1 ;    1.2710e+02    5.9856e+02 ;     N9 - C4   - N3       NA -   CA - x   
    21     20     24      1 ;    1.1732e+02    6.7354e+02 ;     C8 - N9   - C4       C* -   NA - CA  
    21     22     23      1 ;    1.0545e+02    7.2626e+02 ;     C8 - N7   - C5       C* -   NB - CA  
    22     21     38      1 ;    1.2562e+02    4.0886e+02 ;     N7 - C8   - H8       NB -   C* - HA  
    22     23     24      1 ;    1.2100e+02    5.6576e+02 ;     N7 - C5   - C4       NB -   CA - CA  
    22     23     28      1 ;    1.2100e+02    5.6576e+02 ;     N7 - C5   - C6       NB -   CA - CA  
    23     24     25      1 ;    1.2294e+02    5.7045e+02 ;     C5 - C4   - N3       CA -   CA - x   
    23     28     27      1 ;    1.2294e+02    5.7045e+02 ;     C5 - C6   - N1       CA -   CA - x   
    23     28     29      1 ;    1.2094e+02    5.6827e+02 ;     C5 - C6   - N6       CA -   CA - x   
    24     23     28      1 ;    1.2002e+02    5.3279e+02 ;     C4 - C5   - C6       CA -   CA - CA  
    24     25     26      1 ;    1.1724e+02    6.9580e+02 ;     C4 - N3   - C2       CA -    x - CA  
    25     26     27      1 ;    1.2730e+02    6.0886e+02 ;     N3 - C2   - N1        x -   CA - x   
    25     26     39      1 ;    1.1579e+02    4.1974e+02 ;     N3 - C2   - H2        x -   CA - HA  
    26     27     28      1 ;    1.1724e+02    6.9580e+02 ;     C2 - N1   - C6       CA -    x - CA  
    27     26     39      1 ;    1.1579e+02    4.1974e+02 ;     N1 - C2   - H2        x -   CA - HA  
    27     28     29      1 ;    1.1677e+02    6.2727e+02 ;     N1 - C6   - N6        x -   CA - x   
    28     29     40      1 ;    1.1673e+02    4.8292e+02 ;     C6 - N6   - HH6      CA -    x - H   
    28     29     41      1 ;    1.1673e+02    4.8292e+02 ;     C6 - N6   - H6       CA -    x - H   
    30      2     33      1 ;    1.1027e+02    4.7254e+02 ;    O2' - C2'  - H2'      OH -    x - HC  
    31      3     34      1 ;    1.1027e+02    4.7254e+02 ;    O3' - C3'  - H3'      OH -    x - HC  
    36      5     37      1 ;    1.0855e+02    2.9824e+02 ;   HH5' - C5'  - H5       HC -   CT - HC  
    40     29     41      1 ;    1.1528e+02    3.8794e+02 ;    HH6 - N6   - H6        H -    x - H   

[ dihedrals ] ; propers
; for gromacs 4.5 or higher, using funct 9
;    i      j      k      l   func   phase     kd      pn
     1      2      3      4      9 ;     0.00   2.17568   3 ;    C1'-   C2'-   C3'-   C4'
     1      2      3     31      9 ;     0.00   0.75312   3 ;    C1'-   C2'-   C3'-   O3'
     1      2      3     34      9 ;     0.00   0.65084   3 ;    C1'-   C2'-   C3'-   H3'
     1      2     30     42      9 ;     0.00   0.25104   3 ;    C1'-   C2'-   O2'-  HO2'
     1     13      4      3      9 ;     0.00   0.33472   2 ;    C1'-   O4'-   C4'-   C3'
     1     13      4      3      9 ;     0.00   3.13800   3 ;    C1'-   O4'-   C4'-   C3'
     1     13      4      3      9 ;   180.00   3.68192   1 ;    C1'-   O4'-   C4'-   C3'
     1     13      4      5      9 ;     0.00   0.33472   2 ;    C1'-   O4'-   C4'-   C5'
     1     13      4      5      9 ;     0.00   3.13800   3 ;    C1'-   O4'-   C4'-   C5'
     1     13      4      5      9 ;   180.00   3.68192   1 ;    C1'-   O4'-   C4'-   C5'
     1     13      4     35      9 ;     0.00   1.41001   3 ;    C1'-   O4'-   C4'-   H4'
     1     20     21     22      9 ;   180.00   7.11280   2 ;    C1'-    N9-    C8-    N7
     1     20     21     38      9 ;   180.00   7.11280   2 ;    C1'-    N9-    C8-    H8
     1     20     24     23      9 ;   180.00   1.25520   2 ;    C1'-    N9-    C4-    C5
     1     20     24     25      9 ;   180.00   1.25520   2 ;    C1'-    N9-    C4-    N3
     2      1     13      4      9 ;     0.00   0.33472   2 ;    C2'-   C1'-   O4'-   C4'
     2      1     13      4      9 ;     0.00   3.13800   3 ;    C2'-   C1'-   O4'-   C4'
     2      1     13      4      9 ;   180.00   3.68192   1 ;    C2'-   C1'-   O4'-   C4'
     2      1     20     21      9 ;     0.00   0.00000   0 ;    C2'-   C1'-    N9-    C8
     2      1     20     24      9 ;     0.00   0.00000   0 ;    C2'-   C1'-    N9-    C4
     2      3      4      5      9 ;     0.00   2.17568   3 ;    C2'-   C3'-   C4'-   C5'
     2      3      4     13      9 ;     0.00   0.65084   3 ;    C2'-   C3'-   C4'-   O4'
     2      3      4     35      9 ;     0.00   0.65084   3 ;    C2'-   C3'-   C4'-   H4'
     2      3     31     43      9 ;     0.00   0.25104   3 ;    C2'-   C3'-   O3'-  HO3'
     3      2     30     42      9 ;     0.00   0.25104   3 ;    C3'-   C2'-   O2'-  HO2'
     3      4      5      6      9 ;     0.00   0.65084   3 ;    C3'-   C4'-   C5'-   O5'
     3      4      5     36      9 ;     0.00   0.65084   3 ;    C3'-   C4'-   C5'-  HH5'
     3      4      5     37      9 ;     0.00   0.65084   3 ;    C3'-   C4'-   C5'-    H5
     4      3      2     30      9 ;     0.00   0.75312   3 ;    C4'-   C3'-   C2'-   O2'
     4      3      2     33      9 ;     0.00   0.65084   3 ;    C4'-   C3'-   C2'-   H2'
     4      3     31     43      9 ;     0.00   0.25104   3 ;    C4'-   C3'-   O3'-  HO3'
     4      5      6      7      9 ;     0.00   1.60247   3 ;    C4'-   C5'-   O5'-    PA
     4      5      6      7      9 ;   180.00  16.52680   1 ;    C4'-   C5'-   O5'-    PA
     5      4      3     31      9 ;     0.00   0.75312   3 ;    C5'-   C4'-   C3'-   O3'
     5      4      3     34      9 ;     0.00   0.65084   3 ;    C5'-   C4'-   C3'-   H3'
     5      6      7      8      9 ;     0.00  14.72768   2 ;    C5'-   O5'-    PA-  OOPA
     5      6      7     14      9 ;     0.00   2.30120   3 ;    C5'-   O5'-    PA-    O1
     5      6      7     14      9 ;     0.00   3.34720   2 ;    C5'-   O5'-    PA-    O1
     5      6      7     15      9 ;     0.00   2.30120   3 ;    C5'-   O5'-    PA-    O6
     5      6      7     15      9 ;     0.00   3.34720   2 ;    C5'-   O5'-    PA-    O6
     6      5      4     13      9 ;     0.00   1.25520   2 ;    O5'-   C5'-   C4'-   O4'
     6      5      4     13      9 ;   180.00   2.55224   1 ;    O5'-   C5'-   C4'-   O4'
     6      5      4     13      9 ;   180.00   2.92880   3 ;    O5'-   C5'-   C4'-   O4'
     6      5      4     35      9 ;     0.00   0.00000   0 ;    O5'-   C5'-   C4'-   H4'
     6      5      4     35      9 ;     0.00   1.04600   1 ;    O5'-   C5'-   C4'-   H4'
     6      7      8      9      9 ;     0.00   3.34720   2 ;    O5'-    PA-  OOPA-    PB
     7      6      5     36      9 ;     0.00   0.00000   0 ;     PA-   O5'-   C5'-  HH5'
     7      6      5     37      9 ;     0.00   0.00000   0 ;     PA-   O5'-   C5'-    H5
     7      8      9     10      9 ;     0.00   3.34720   2 ;     PA-  OOPA-    PB-  OOPB
     7      8      9     16      9 ;     0.00   3.34720   2 ;     PA-  OOPA-    PB-    O7
     7      8      9     17      9 ;     0.00   3.34720   2 ;     PA-  OOPA-    PB-    O8
     8      9     10     11      9 ;     0.00   3.34720   2 ;   OOPA-    PB-  OOPB-    PG
     9      8      7     14      9 ;     0.00   3.34720   2 ;     PB-  OOPA-    PA-    O1
     9      8      7     15      9 ;     0.00   3.34720   2 ;     PB-  OOPA-    PA-    O6
     9     10     11     12      9 ;     0.00   3.34720   2 ;     PB-  OOPB-    PG-  OOPG
     9     10     11     18      9 ;     0.00   3.34720   2 ;     PB-  OOPB-    PG-    O9
     9     10     11     19      9 ;     0.00   3.34720   2 ;     PB-  OOPB-    PG-   O10
    11     10      9     16      9 ;     0.00   3.34720   2 ;     PG-  OOPB-    PB-    O7
    11     10      9     17      9 ;     0.00   3.34720   2 ;     PG-  OOPB-    PB-    O8
    13      1      2      3      9 ;     0.00   0.65084   3 ;    O4'-   C1'-   C2'-   C3'
    13      1      2     30      9 ;     0.00   2.46856   1 ;    O4'-   C1'-   C2'-   O2'
    13      1      2     30      9 ;     0.00   3.30536   3 ;    O4'-   C1'-   C2'-   O2'
    13      1      2     30      9 ;     0.00   5.27184   2 ;    O4'-   C1'-   C2'-   O2'
    13      1      2     33      9 ;     0.00   0.00000   0 ;    O4'-   C1'-   C2'-   H2'
    13      1      2     33      9 ;     0.00   1.04600   1 ;    O4'-   C1'-   C2'-   H2'
    13      1     20     21      9 ;     0.00   0.83680   3 ;    O4'-   C1'-    N9-    C8
    13      1     20     21      9 ;     0.00   6.13653   2 ;    O4'-   C1'-    N9-    C8
    13      1     20     21      9 ;     0.00   9.99976   1 ;    O4'-   C1'-    N9-    C8
    13      1     20     24      9 ;     0.00   0.00000   0 ;    O4'-   C1'-    N9-    C4
    13      4      3     31      9 ;     0.00   2.46856   1 ;    O4'-   C4'-   C3'-   O3'
    13      4      3     31      9 ;     0.00   3.30536   3 ;    O4'-   C4'-   C3'-   O3'
    13      4      3     31      9 ;     0.00   5.27184   2 ;    O4'-   C4'-   C3'-   O3'
    13      4      3     34      9 ;     0.00   0.00000   0 ;    O4'-   C4'-   C3'-   H3'
    13      4      3     34      9 ;     0.00   1.04600   1 ;    O4'-   C4'-   C3'-   H3'
    13      4      5     36      9 ;     0.00   0.00000   0 ;    O4'-   C4'-   C5'-  HH5'
    13      4      5     36      9 ;     0.00   1.04600   1 ;    O4'-   C4'-   C5'-  HH5'
    13      4      5     37      9 ;     0.00   0.00000   0 ;    O4'-   C4'-   C5'-    H5
    13      4      5     37      9 ;     0.00   1.04600   1 ;    O4'-   C4'-   C5'-    H5
    20      1      2      3      9 ;     0.00   0.65084   3 ;     N9-   C1'-   C2'-   C3'
    20      1      2     30      9 ;     0.00   0.65084   3 ;     N9-   C1'-   C2'-   O2'
    20      1      2     33      9 ;     0.00   0.65084   3 ;     N9-   C1'-   C2'-   H2'
    20      1     13      4      9 ;     0.00   1.60247   3 ;     N9-   C1'-   O4'-   C4'
    20      1     13      4      9 ;     0.00   2.71960   2 ;     N9-   C1'-   O4'-   C4'
    20     21     22     23      9 ;   180.00  19.87400   2 ;     N9-    C8-    N7-    C5
    20     24     23     22      9 ;   180.00  15.16700   2 ;     N9-    C4-    C5-    N7
    20     24     23     28      9 ;   180.00  15.16700   2 ;     N9-    C4-    C5-    C6
    20     24     25     26      9 ;   180.00  20.08320   2 ;     N9-    C4-    N3-    C2
    21     20     24     23      9 ;   180.00   2.56479   2 ;     C8-    N9-    C4-    C5
    21     20     24     25      9 ;   180.00   1.25520   2 ;     C8-    N9-    C4-    N3
    21     22     23     24      9 ;   180.00  20.08320   2 ;     C8-    N7-    C5-    C4
    21     22     23     28      9 ;   180.00  20.08320   2 ;     C8-    N7-    C5-    C6
    22     21     20     24      9 ;   180.00   7.11280   2 ;     N7-    C8-    N9-    C4
    22     23     24     25      9 ;   180.00  15.16700   2 ;     N7-    C5-    C4-    N3
    22     23     28     27      9 ;   180.00  15.16700   2 ;     N7-    C5-    C6-    N1
    22     23     28     29      9 ;   180.00  15.16700   2 ;     N7-    C5-    C6-    N6
    23     22     21     38      9 ;   180.00  19.87400   2 ;     C5-    N7-    C8-    H8
    23     24     25     26      9 ;   180.00  20.08320   2 ;     C5-    C4-    N3-    C2
    23     28     27     26      9 ;   180.00  20.08320   2 ;     C5-    C6-    N1-    C2
    23     28     29     40      9 ;   180.00   4.39320   2 ;     C5-    C6-    N6-   HH6
    23     28     29     41      9 ;   180.00   4.39320   2 ;     C5-    C6-    N6-    H6
    24     20     21     38      9 ;   180.00   7.11280   2 ;     C4-    N9-    C8-    H8
    24     23     28     27      9 ;   180.00  15.16700   2 ;     C4-    C5-    C6-    N1
    24     23     28     29      9 ;   180.00  15.16700   2 ;     C4-    C5-    C6-    N6
    24     25     26     27      9 ;   180.00  20.08320   2 ;     C4-    N3-    C2-    N1
    24     25     26     39      9 ;   180.00  20.08320   2 ;     C4-    N3-    C2-    H2
    25     24     23     28      9 ;   180.00  15.16700   2 ;     N3-    C4-    C5-    C6
    25     26     27     28      9 ;   180.00  20.08320   2 ;     N3-    C2-    N1-    C6
    26     27     28     29      9 ;   180.00  20.08320   2 ;     C2-    N1-    C6-    N6
    27     28     29     40      9 ;   180.00   4.39320   2 ;     N1-    C6-    N6-   HH6
    27     28     29     41      9 ;   180.00   4.39320   2 ;     N1-    C6-    N6-    H6
    28     27     26     39      9 ;   180.00  20.08320   2 ;     C6-    N1-    C2-    H2
    30      2      3     31      9 ;     0.00   4.18400   1 ;    O2'-   C2'-   C3'-   O3'
    30      2      3     31      9 ;     0.00   6.02496   3 ;    O2'-   C2'-   C3'-   O3'
    30      2      3     34      9 ;     0.00   0.00000   0 ;    O2'-   C2'-   C3'-   H3'
    30      2      3     34      9 ;     0.00   1.04600   1 ;    O2'-   C2'-   C3'-   H3'
    31      3      2     33      9 ;     0.00   0.00000   0 ;    O3'-   C3'-   C2'-   H2'
    31      3      2     33      9 ;     0.00   1.04600   1 ;    O3'-   C3'-   C2'-   H2'
    31      3      4     35      9 ;     0.00   0.00000   0 ;    O3'-   C3'-   C4'-   H4'
    31      3      4     35      9 ;     0.00   1.04600   1 ;    O3'-   C3'-   C4'-   H4'
    32      1      2      3      9 ;     0.00   0.65084   3 ;    H1'-   C1'-   C2'-   C3'
    32      1      2     30      9 ;     0.00   0.65084   3 ;    H1'-   C1'-   C2'-   O2'
    32      1      2     33      9 ;     0.00   0.65084   3 ;    H1'-   C1'-   C2'-   H2'
    32      1     13      4      9 ;     0.00   1.60387   3 ;    H1'-   C1'-   O4'-   C4'
    32      1     20     21      9 ;     0.00   0.00000   0 ;    H1'-   C1'-    N9-    C8
    32      1     20     24      9 ;     0.00   0.00000   0 ;    H1'-   C1'-    N9-    C4
    33      2      3     34      9 ;     0.00   0.65084   3 ;    H2'-   C2'-   C3'-   H3'
    33      2     30     42      9 ;     0.00   0.51463   3 ;    H2'-   C2'-   O2'-  HO2'
    34      3      4     35      9 ;     0.00   0.65084   3 ;    H3'-   C3'-   C4'-   H4'
    34      3     31     43      9 ;     0.00   0.51463   3 ;    H3'-   C3'-   O3'-  HO3'
    35      4      5     36      9 ;     0.00   0.65084   3 ;    H4'-   C4'-   C5'-  HH5'
    35      4      5     37      9 ;     0.00   0.65084   3 ;    H4'-   C4'-   C5'-    H5

[ dihedrals ] ; impropers
; treated as propers in GROMACS to use correct AMBER analytical function
;    i      j      k      l   func   phase     kd      pn
     1     24     20     21      4 ;   180.00   4.60240   2 ;    C1'-    C4-    N9-    C8
    23     20     24     25      4 ;   180.00   4.60240   2 ;     C5-    N9-    C4-    N3
    23     27     28     29      4 ;   180.00   4.60240   2 ;     C5-    N1-    C6-    N6
    24     28     23     22      4 ;   180.00   4.60240   2 ;     C4-    C6-    C5-    N7
    28     40     29     41      4 ;   180.00   4.60240   2 ;     C6-   HH6-    N6-    H6
    38     20     21     22      4 ;   180.00   4.60240   2 ;     H8-    N9-    C8-    N7
    39     25     26     27      4 ;   180.00   4.60240   2 ;     H2-    N3-    C2-    N1
