ligand_acpype_input.pdb
    43
  -4.6090000   7.3730000   5.0090000  -3.4500000   7.3990000   5.9610000
  -2.3380000   6.8080000   5.0980000  -3.0340000   5.8100000   4.2220000
  -3.0580000   4.3820000   4.7540000  -2.8590000   4.3900000   6.1240000
  -1.5430000   3.7610000   6.7270000  -0.4000000   4.3980000   5.8080000
   1.1250000   3.9450000   5.6770000   1.6710000   4.0540000   7.1530000
   1.7130000   2.9160000   8.2470000   0.9860000   1.7190000   7.7230000
  -4.3760000   6.2900000   4.1080000  -1.4030000   4.2790000   8.1190000
  -1.5600000   2.2780000   6.5180000   1.7970000   4.9820000   4.8310000
   1.1820000   2.5340000   5.1570000   3.1510000   2.6430000   8.4780000
   1.0270000   3.5140000   9.4420000  -5.8890000   7.0970000   5.6320000
  -6.1510000   6.1520000   6.5570000  -7.4660000   6.1350000   6.8370000
  -8.0310000   7.0910000   6.0650000  -7.0250000   7.7110000   5.3000000
  -7.2620000   8.7070000   4.4360000  -8.5170000   9.1200000   4.2950000
  -9.5510000   8.5750000   4.9790000  -9.3570000   7.5820000   5.8610000
 -10.4050000   7.0520000   6.5240000  -3.1810000   8.7260000   6.3810000
  -1.7640000   7.8420000   4.2880000  -4.6700000   8.2380000   4.5520000
  -3.6500000   6.8270000   6.7310000  -1.6480000   6.3510000   5.6220000
  -2.6150000   5.8100000   3.3360000  -3.9240000   3.9670000   4.5600000
  -2.3480000   3.8550000   4.3320000  -5.4360000   5.4750000   6.9490000
  -8.7350000   9.9080000   3.6200000 -11.3200000   7.3940000   6.3620000
 -10.2590000   6.3200000   7.1740000  -3.9290000   9.0450000   6.9280000
  -1.1190000   7.4410000   3.6690000
