%VERSION  VERSION_STAMP = V0001.000  DATE = 10/06/26  10:31:48                  
%FLAG TITLE                                                                     
%FORMAT(20a4)                                                                   
ligand_acpype_input.pdb                                                         
%FLAG POINTERS                                                                  
%FORMAT(10I8)                                                                   
      43      14      12      33      26      52      54      84       0       0
     223       1      33      52      84      22      44      40      17       0
       0       0       0       0       0       0       0       0      43       0
       0
%FLAG ATOM_NAME                                                                 
%FORMAT(20a4)                                                                   
C1' C2' C3' C4' C5' O5' PA  OOPAPB  OOPBPG  OOPGO4' O1  O6  O7  O8  O9  O10 N9  
C8  N7  C5  C4  N3  C2  N1  C6  N6  O2' O3' H1' H2' H3' H4' HH5'H5  H8  H2  HH6 
H6  HO2'HO3'
%FLAG CHARGE                                                                    
%FORMAT(5E16.8)                                                                 
  4.38792984E+00  2.09738673E+00  2.04271983E+00  1.76938533E+00  3.06863532E+00
 -1.10463583E+01  2.92978139E+01 -1.43737502E+01  3.05733749E+01 -1.45377509E+01
  2.63840682E+01 -1.72595612E+01 -7.93763388E+00 -1.22271633E+01 -1.22271633E+01
 -1.67280714E+01 -1.67280714E+01 -1.72595612E+01 -1.72595612E+01 -5.01113250E+00
  6.31767141E+00 -1.40876601E+01 -2.02631976E+00  7.04838564E+00 -1.28649438E+01
  1.01662212E+01 -1.42316163E+01  9.66146346E+00 -1.62451804E+01 -1.12759592E+01
 -1.22781857E+01  7.59869910E-01  1.98076401E+00  1.45231731E+00  1.12431591E+00
  1.29742776E+00  1.29742776E+00  2.45636604E+00 -3.46223700E-02  6.39238284E+00
  6.39238284E+00  7.54403220E+00  9.25692840E+00
%FLAG ATOMIC_NUMBER                                                             
%FORMAT(10I8)                                                                   
       6       6       6       6       6       8      15       8      15       8
      15       8       8       8       8       8       8       8       8       7
       6       7       6       6       7       6       7       6       7       8
       8       1       1       1       1       1       1       1       1       1
       1       1       1
%FLAG MASS                                                                      
%FORMAT(5E16.8)                                                                 
  1.20100000E+01  1.20100000E+01  1.20100000E+01  1.20100000E+01  1.20100000E+01
  1.60000000E+01  3.09700000E+01  1.60000000E+01  3.09700000E+01  1.60000000E+01
  3.09700000E+01  1.60000000E+01  1.60000000E+01  1.60000000E+01  1.60000000E+01
  1.60000000E+01  1.60000000E+01  1.60000000E+01  1.60000000E+01  1.40100000E+01
  1.20100000E+01  1.40100000E+01  1.20100000E+01  1.20100000E+01  1.40100000E+01
  1.20100000E+01  1.40100000E+01  1.20100000E+01  1.40100000E+01  1.60000000E+01
  1.60000000E+01  1.00800000E+00  1.00800000E+00  1.00800000E+00  1.00800000E+00
  1.00800000E+00  1.00800000E+00  1.00800000E+00  1.00800000E+00  1.00800000E+00
  1.00800000E+00  1.00800000E+00  1.00800000E+00
%FLAG ATOM_TYPE_INDEX                                                           
%FORMAT(10I8)                                                                   
       1       1       1       1       1       2       3       2       3       2
       3       4       2       4       4       4       4       4       4       5
       6       7       6       6       7       6       7       6       8       9
       9      10      11      11      11      11      11      12      12      13
      13      14      14
%FLAG NUMBER_EXCLUDED_ATOMS                                                     
%FORMAT(10I8)                                                                   
      19      15      15      14      11       9       9       7       9       6
       5       2      11       1       1       1       1       1       1      11
       7       7       9       8       4       4       5       4       2       5
       4       1       2       2       2       1       1       1       1       1
       1       1       1
%FLAG NONBONDED_PARM_INDEX                                                      
%FORMAT(10I8)                                                                   
       1       2       4       7      11      16      22      29      37      46
      56      67      79      92       2       3       5       8      12      17
      23      30      38      47      57      68      80      93       4       5
       6       9      13      18      24      31      39      48      58      69
      81      94       7       8       9      10      14      19      25      32
      40      49      59      70      82      95      11      12      13      14
      15      20      26      33      41      50      60      71      83      96
      16      17      18      19      20      21      27      34      42      51
      61      72      84      97      22      23      24      25      26      27
      28      35      43      52      62      73      85      98      29      30
      31      32      33      34      35      36      44      53      63      74
      86      99      37      38      39      40      41      42      43      44
      45      54      64      75      87     100      46      47      48      49
      50      51      52      53      54      55      65      76      88     101
      56      57      58      59      60      61      62      63      64      65
      66      77      89     102      67      68      69      70      71      72
      73      74      75      76      77      78      90     103      79      80
      81      82      83      84      85      86      87      88      89      90
      91     104      92      93      94      95      96      97      98      99
     100     101     102     103     104     105
%FLAG RESIDUE_LABEL                                                             
%FORMAT(20a4)                                                                   
ATP 
%FLAG RESIDUE_POINTER                                                           
%FORMAT(10I8)                                                                   
       1
%FLAG BOND_FORCE_CONSTANT                                                       
%FORMAT(5E16.8)                                                                 
  2.20100000E+02  2.75610000E+02  2.60400000E+02  3.46280000E+02  2.89690000E+02
  3.43780000E+02  2.27640000E+02  2.82270000E+02  3.44220000E+02  3.87590000E+02
  5.73030000E+02  3.35500000E+02  3.29320000E+02  4.19720000E+02  3.66970000E+02
  3.28650000E+02  3.54250000E+02  3.86490000E+02  3.57590000E+02  3.42300000E+02
  4.77540000E+02  5.35510000E+02
%FLAG BOND_EQUIL_VALUE                                                          
%FORMAT(5E16.8)                                                                 
  1.54830000E+00  1.43460000E+00  1.45710000E+00  1.09550000E+00  1.41940000E+00
  1.09720000E+00  1.53720000E+00  1.42730000E+00  1.09690000E+00  1.61820000E+00
  1.48850000E+00  1.38030000E+00  1.38580000E+00  1.31580000E+00  1.08200000E+00
  1.38640000E+00  1.39860000E+00  1.33920000E+00  1.08800000E+00  1.37440000E+00
  1.01140000E+00  9.72500000E-01
%FLAG ANGLE_FORCE_CONSTANT                                                      
%FORMAT(5E16.8)                                                                 
  6.18400000E+01  7.58300000E+01  4.26500000E+01  8.96100000E+01  7.54400000E+01
  7.49500000E+01  7.74300000E+01  6.41900000E+01  4.27800000E+01  6.54000000E+01
  5.93300000E+01  7.74200000E+01  4.32800000E+01  7.67500000E+01  4.33100000E+01
  5.66400000E+01  5.62000000E+01  1.02920000E+02  1.00300000E+02  3.71200000E+01
  1.03760000E+02  8.38000000E+01  5.62000000E+01  5.64400000E+01  4.88900000E+01
  7.69700000E+01  4.78300000E+01  6.78200000E+01  7.15300000E+01  8.04900000E+01
  8.67900000E+01  4.88600000E+01  6.76100000E+01  6.81700000E+01  6.79100000E+01
  6.36700000E+01  8.31500000E+01  7.27600000E+01  5.01600000E+01  7.49600000E+01
  5.77100000E+01  5.64700000E+01  3.56400000E+01  4.63600000E+01
%FLAG ANGLE_EQUIL_VALUE                                                         
%FORMAT(5E16.8)                                                                 
  1.81217614E+00  1.94813735E+00  1.94028336E+00  1.90694756E+00  2.20854058E+00
  2.22983361E+00  1.85249326E+00  2.00451150E+00  1.92911325E+00  1.87047016E+00
  1.98269488E+00  1.87657882E+00  1.90904195E+00  1.90188610E+00  1.90659849E+00
  2.08916001E+00  1.92579712E+00  1.77534968E+00  2.01480895E+00  2.19073822E+00
  2.06455086E+00  1.90712209E+00  1.91061275E+00  1.89298492E+00  1.85284233E+00
  1.95494413E+00  2.12546287E+00  2.09980652E+00  2.21831443E+00  2.04762116E+00
  1.84045049E+00  2.19248355E+00  2.11184930E+00  2.14570870E+00  2.11080210E+00
  2.09474507E+00  2.04622489E+00  2.22180509E+00  2.02091761E+00  2.03802184E+00
  2.03732371E+00  1.92457539E+00  1.89455572E+00  2.01201642E+00
%FLAG DIHEDRAL_FORCE_CONSTANT                                                   
%FORMAT(5E16.8)                                                                 
  5.20000000E-01  1.80000000E-01  1.55555556E-01  6.00000000E-02  8.80000000E-01
  8.00000000E-02  7.50000000E-01  3.37000000E-01  1.70000000E+00  3.00000000E-01
  0.00000000E+00  3.95000000E+00  3.83000000E-01  6.50000000E-01  3.83333333E-01
  3.52000000E+00  8.00000000E-01  5.50000000E-01  6.10000000E-01  3.00000000E-01
  7.00000000E-01  2.50000000E-01  0.00000000E+00  8.00000000E-01  0.00000000E+00
  5.90000000E-01  1.26000000E+00  7.90000000E-01  2.39000000E+00  1.46666667E+00
  2.00000000E-01  4.75000000E+00  3.62500000E+00  4.80000000E+00  6.13000000E-01
  1.05000000E+00  1.00000000E+00  1.44000000E+00  1.23000000E-01  1.10000000E+00
%FLAG DIHEDRAL_PERIODICITY                                                      
%FORMAT(5E16.8)                                                                 
  3.00000000E+00  3.00000000E+00  3.00000000E+00  3.00000000E+00  1.00000000E+00
  2.00000000E+00  3.00000000E+00  3.00000000E+00  2.00000000E+00  2.00000000E+00
  2.00000000E+00  1.00000000E+00  3.00000000E+00  2.00000000E+00  3.00000000E+00
  2.00000000E+00  2.00000000E+00  3.00000000E+00  1.00000000E+00  2.00000000E+00
  3.00000000E+00  1.00000000E+00  3.00000000E+00  2.00000000E+00  1.00000000E+00
  1.00000000E+00  2.00000000E+00  3.00000000E+00  1.00000000E+00  2.00000000E+00
  3.00000000E+00  2.00000000E+00  2.00000000E+00  2.00000000E+00  2.00000000E+00
  2.00000000E+00  1.00000000E+00  3.00000000E+00  3.00000000E+00  2.00000000E+00
%FLAG DIHEDRAL_PHASE                                                            
%FORMAT(5E16.8)                                                                 
  0.00000000E+00  0.00000000E+00  0.00000000E+00  0.00000000E+00  3.14159400E+00
  0.00000000E+00  0.00000000E+00  0.00000000E+00  3.14159400E+00  3.14159400E+00
  0.00000000E+00  3.14159400E+00  0.00000000E+00  0.00000000E+00  0.00000000E+00
  0.00000000E+00  0.00000000E+00  0.00000000E+00  3.14159400E+00  0.00000000E+00
  3.14159400E+00  0.00000000E+00  0.00000000E+00  0.00000000E+00  0.00000000E+00
  0.00000000E+00  0.00000000E+00  0.00000000E+00  0.00000000E+00  0.00000000E+00
  0.00000000E+00  3.14159400E+00  3.14159400E+00  3.14159400E+00  3.14159400E+00
  3.14159400E+00  0.00000000E+00  0.00000000E+00  0.00000000E+00  3.14159400E+00
%FLAG SCEE_SCALE_FACTOR                                                         
%FORMAT(5E16.8)                                                                 
  1.20000000E+00  1.20000000E+00  1.20000000E+00  1.20000000E+00  1.20000000E+00
  1.20000000E+00  1.20000000E+00  1.20000000E+00  1.20000000E+00  1.20000000E+00
  1.20000000E+00  1.20000000E+00  1.20000000E+00  1.20000000E+00  1.20000000E+00
  1.20000000E+00  1.20000000E+00  1.20000000E+00  1.20000000E+00  1.20000000E+00
  1.20000000E+00  1.20000000E+00  1.20000000E+00  1.20000000E+00  1.20000000E+00
  1.20000000E+00  1.20000000E+00  1.20000000E+00  1.20000000E+00  1.20000000E+00
  1.20000000E+00  1.20000000E+00  1.20000000E+00  1.20000000E+00  1.20000000E+00
  1.20000000E+00  1.20000000E+00  1.20000000E+00  1.20000000E+00  0.00000000E+00
%FLAG SCNB_SCALE_FACTOR                                                         
%FORMAT(5E16.8)                                                                 
  2.00000000E+00  2.00000000E+00  2.00000000E+00  2.00000000E+00  2.00000000E+00
  2.00000000E+00  2.00000000E+00  2.00000000E+00  2.00000000E+00  2.00000000E+00
  2.00000000E+00  2.00000000E+00  2.00000000E+00  2.00000000E+00  2.00000000E+00
  2.00000000E+00  2.00000000E+00  2.00000000E+00  2.00000000E+00  2.00000000E+00
  2.00000000E+00  2.00000000E+00  2.00000000E+00  2.00000000E+00  2.00000000E+00
  2.00000000E+00  2.00000000E+00  2.00000000E+00  2.00000000E+00  2.00000000E+00
  2.00000000E+00  2.00000000E+00  2.00000000E+00  2.00000000E+00  2.00000000E+00
  2.00000000E+00  2.00000000E+00  2.00000000E+00  2.00000000E+00  0.00000000E+00
%FLAG SOLTY                                                                     
%FORMAT(5E16.8)                                                                 
  0.00000000E+00  0.00000000E+00  0.00000000E+00  0.00000000E+00  0.00000000E+00
  0.00000000E+00  0.00000000E+00  0.00000000E+00  0.00000000E+00  0.00000000E+00
  0.00000000E+00  0.00000000E+00  0.00000000E+00  0.00000000E+00  0.00000000E+00
  0.00000000E+00  0.00000000E+00
%FLAG LENNARD_JONES_ACOEF                                                       
%FORMAT(5E16.8)                                                                 
  1.02073671E+06  5.42502534E+05  2.83662575E+05  2.48558450E+06  1.34566835E+06
  5.92702883E+06  6.30925504E+05  3.27367585E+05  1.57866258E+06  3.76435470E+05
  9.96191545E+05  5.22690526E+05  2.46139748E+06  6.04208667E+05  9.62429652E+05
  8.43969952E+05  4.46121722E+05  2.06784094E+06  5.17507491E+05  8.20152428E+05
  6.96551276E+05  9.31115275E+05  4.94433451E+05  2.26961936E+06  5.74782316E+05
  9.08092643E+05  7.69642101E+05  8.49322032E+05  9.87370297E+05  5.23754919E+05
  2.40960972E+06  6.08567325E+05  9.62159465E+05  8.15855629E+05  9.00584118E+05
  9.54875571E+05  7.18991463E+05  3.78207390E+05  1.77138677E+06  4.37717034E+05
  6.96017793E+05  5.92438683E+05  6.55497149E+05  6.94638423E+05  5.03152404E+05
  4.80619274E+04  2.33261683E+04  1.29617879E+05  2.59855087E+04  4.36678042E+04
  3.85565555E+04  4.36276732E+04  4.59944574E+04  3.19666529E+04  1.35510742E+03
  6.97998263E+04  3.44374471E+04  1.84820254E+05  3.86646725E+04  6.42436358E+04
  5.63013422E+04  6.34160397E+04  6.69267216E+04  4.69084694E+04  2.16218723E+03
  3.39005767E+03  6.46910138E+04  3.19887757E+04  1.70862239E+05  3.59538577E+04
  5.96470418E+04  5.22195041E+04  5.87815925E+04  6.20446596E+04  4.35368956E+04
  2.02982706E+03  3.17496391E+03  2.97255425E+03  2.23577481E+03  9.46795083E+02
  7.00727766E+03  9.87857350E+02  1.82491629E+03  1.71458823E+03  2.01475241E+03
  2.10567903E+03  1.36475542E+03  2.81680913E+01  5.24570081E+01  5.02830284E+01
  1.34728399E-01  3.03553352E+02  1.16469347E+02  1.05833478E+03  1.15813907E+02
  2.29317644E+02  2.25372434E+02  2.72118326E+02  2.82631147E+02  1.74176419E+02
  2.07292270E+00  4.36660257E+00  4.25484751E+00  2.61760843E-03  1.10360882E-05
%FLAG LENNARD_JONES_BCOEF                                                       
%FORMAT(5E16.8)                                                                 
  6.63431737E+02  4.38146883E+02  2.87011518E+02  1.25053147E+03  8.33544600E+02
  2.33259779E+03  5.62969425E+02  3.67361018E+02  1.07567582E+03  4.69350655E+02
  7.68900328E+02  5.04545572E+02  1.45992477E+03  6.46321327E+02  8.86629877E+02
  5.90251928E+02  3.88758656E+02  1.11602383E+03  4.98871431E+02  6.82622272E+02
  5.24668528E+02  6.12468585E+02  4.04310927E+02  1.15504682E+03  5.19385932E+02
  7.09588248E+02  5.44830041E+02  5.65406768E+02  6.58763033E+02  4.34643024E+02
  1.24309273E+03  5.58212938E+02  7.62907640E+02  5.85909304E+02  6.08126668E+02
  6.54052181E+02  5.36620538E+02  3.52573684E+02  1.01742664E+03  4.51916854E+02
  6.19405188E+02  4.76608379E+02  4.95260330E+02  5.32518426E+02  4.32634597E+02
  9.54115851E+01  6.02145835E+01  1.89266590E+02  7.57220777E+01  1.06694109E+02
  8.36149973E+01  8.78666889E+01  9.42330147E+01  7.49920368E+01  1.06181419E+01
  1.14981426E+02  7.31636661E+01  2.26004082E+02  9.23664132E+01  1.29412081E+02
  1.01040256E+02  1.05935811E+02  1.13671113E+02  9.08431526E+01  1.34124560E+01
  1.67944276E+01  1.03827676E+02  6.61407978E+01  2.03823936E+02  8.35449674E+01
  1.16962018E+02  9.12729468E+01  9.56653235E+01  1.02658089E+02  8.20891825E+01
  1.21893856E+01  1.52447987E+01  1.38359132E+01  1.71355763E+01  1.01016461E+01
  3.66437854E+01  1.22938581E+01  1.81620725E+01  1.46824710E+01  1.57231024E+01
  1.67892226E+01  1.29026271E+01  1.27474859E+00  1.73959275E+00  1.59752321E+00
  7.34107347E-02  5.22789272E+00  2.93355636E+00  1.17912994E+01  3.48534600E+00
  5.33073545E+00  4.40751799E+00  4.78443613E+00  5.09294489E+00  3.81654050E+00
  2.86326700E-01  4.15568027E-01  3.84771529E-01  8.47240681E-03  4.55498033E-04
%FLAG BONDS_INC_HYDROGEN                                                        
%FORMAT(10I8)                                                                   
       0      93       4       3      96       6       6      99       6       9
     102       6      12     105       9      12     108       9      60     111
      15      75     114      19      84     117      21      84     120      21
      87     123      22      90     126      22
%FLAG BONDS_WITHOUT_HYDROGEN                                                    
%FORMAT(10I8)                                                                   
       0       3       1       0      36       2       0      57       3       3
       6       1       3      87       5       6       9       1       6      90
       5       9      12       7       9      36       2      12      15       8
      15      18      10      18      21      10      18      39      11      18
      42      11      21      24      10      24      27      10      24      45
      11      24      48      11      27      30      10      30      33      11
      30      51      11      30      54      11      57      60      12      57
      69      13      60      63      14      63      66      16      66      69
      17      66      81      17      69      72      18      72      75      18
      75      78      18      78      81      18      81      84      20
%FLAG ANGLES_INC_HYDROGEN                                                       
%FORMAT(10I8)                                                                   
       0       3      96       3       3       0      93       9       3       6
      99       3       3      87     123      10       6       3      96       3
       6       9     102       3       6      90     126      10       9       6
      99       3       9      12     105      13       9      12     108      13
      12       9     102      15      15      12     105      17      15      12
     108      17      36       0      93      23      36       9     102      24
      57       0      93      25      57      60     111      27      63      60
     111      32      72      75     114      39      78      75     114      39
      81      84     117      41      81      84     120      41      87       3
      96      42      90       6      99      42     105      12     108      43
     117      84     120      44
%FLAG ANGLES_WITHOUT_HYDROGEN                                                   
%FORMAT(10I8)                                                                   
       0       3       6       1       0       3      87       2       0      36
       9       4       0      57      60       5       0      57      69       6
       3       0      36       7       3       0      57       8       3       6
       9       1       3       6      90       2       6       3      87       2
       6       9      12      11       6       9      36       7       9       6
      90       2       9      12      15      12      12       9      36      14
      12      15      18      16      15      18      21      18      15      18
      39      19      15      18      42      19      18      21      24      20
      21      18      39      19      21      18      42      19      21      24
      27      18      21      24      45      19      21      24      48      19
      24      27      30      20      27      24      45      19      27      24
      48      19      27      30      33      19      27      30      51      19
      27      30      54      19      33      30      51      21      33      30
      54      21      36       0      57      22      39      18      42      21
      45      24      48      21      51      30      54      21      57      60
      63      26      57      69      66      28      57      69      72      29
      60      57      69      30      60      63      66      31      63      66
      69      33      63      66      81      33      66      69      72      34
      66      81      78      34      66      81      84      35      69      66
      81      36      69      72      75      37      72      75      78      38
      75      78      81      37      78      81      84      40
%FLAG DIHEDRALS_INC_HYDROGEN                                                    
%FORMAT(10I8)                                                                   
       0       3       6      99       3       0       3      87     123       4
       0      36       9     102       8       0      57      60     111       9
       3       6       9     102       3       3       6      90     126       4
      93       0       3       6       3       6       3      87     123       4
       6       9      12     105       3       6       9      12     108       3
       9       6       3      96       3       9       6      90     126       4
      93       0      36       9      15      12       9       6      99       3
      15      12       9     102      22      15      12      -9     102      23
      18      15      12     105      25      18      15      12     108      25
      36       0       3      96      22      36       0      -3      96      23
      36       9       6      99      22      36       9      -6      99      23
      36       9      12     105      22      36       9     -12     105      23
      36       9      12     108      22      36       9     -12     108      23
      57       0       3      96       3      93       0      57      60      11
      66      63      60     111      32      66      81      84     117      36
      66      81      84     120      36      93       0      57      69      11
      69      57      60     111       9      69      72      75     114      34
      78      81      84     117      36      78      81      84     120      36
      81      78      75     114      34      93       0       3      87       3
      87       3       6      99      22      87       3      -6      99      23
      90       6       3      96      22      90       6      -3      96      23
      90       6       9     102      22      90       6      -9     102      23
      93       0       3      96       3      96       3       6      99       3
      96       3      87     123      39      99       6       9     102       3
      99       6      90     126      39     102       9      12     105       3
     102       9      12     108       3     111      57     -60     -63      40
     114      72     -75     -78      40      81     117     -84    -120      40
%FLAG DIHEDRALS_WITHOUT_HYDROGEN                                                
%FORMAT(10I8)                                                                   
       0       3      -6       9       1       0       3       6      90       2
       0      36      -9       6       5       0      36      -9       6       6
       0      36      -9       6       7       0      36       9      12       5
       0      36      -9      12       6       0      36      -9      12       7
       0      57      60      63       9       0      57      69      66      10
       0      57      69      72      10       3       0     -36       9       5
       3       0     -36       9       6       3       0     -36       9       7
       3       0      57      60      11       3       0      57      69      11
       3       6       9      12       1       3       6      -9      36       3
      36       0      -3       6       3      57       0       3       6       3
       6       9      12      15       3       9       6       3      87       2
       9      12      15      18      12       9      12     -15      18      13
      57       0      36       9      14      57       0     -36       9      13
      12       9       6      90       2      12      15      18      21      16
      12      15      18      39      17      12      15     -18      39      18
      12      15      18      42      17      12      15     -18      42      18
      15      12       9      36      19      15      12      -9      36      20
      15      12      -9      36      21      15      18      21      24      24
      18      21      24      27      24      18      21      24      45      24
      18      21      24      48      24      21      24      27      30      24
      24      21      18      39      24      24      21      18      42      24
      24      27      30      33      24      24      27      30      51      24
      24      27      30      54      24      30      27      24      45      24
      30      27      24      48      24      36       0       3      87      26
      36       0      -3      87      27      36       0      -3      87      28
      36       0      57      60      29      36       0     -57      60      30
      36       0     -57      60      31      36       0      57      69      11
      36       9       6      90      26      36       9      -6      90      27
      36       9      -6      90      28      57       0       3      87       3
      57      60     -63      66      32      57      69     -66      63      33
      57      69      66      81      33      57      69      72      75      34
      60      57     -69      66      35      60      57      69      72      10
      60      63     -66      69      34      60      63      66      81      34
      63      60     -57      69       9      63      66      69      72      33
      63      66      81      78      33      63      66      81      84      33
      66      69      72      75      34      66      81     -78      75      34
      69      66      81      78      33      69      66      81      84      33
      69      72     -75      78      34      72      69      66      81      33
      72      75     -78      81      34      75      78      81      84      34
      87       3       6      90      37      87       3      -6      90      38
       0      69     -57     -60      40      69      81     -66     -63      40
      66      57     -69     -72      40      66      78     -81     -84      40
%FLAG EXCLUDED_ATOMS_LIST                                                       
%FORMAT(10I8)                                                                   
       2       3       4       5      13      20      21      22      23      24
      25      30      31      32      33      34      35      38      42       3
       4       5      13      20      21      24      30      31      32      33
      34      35      42      43       4       5       6      13      20      30
      31      32      33      34      35      36      37      42      43       5
       6       7      13      20      30      31      32      33      34      35
      36      37      43       6       7       8      13      14      15      31
      34      35      36      37       7       8       9      13      14      15
      35      36      37       8       9      10      14      15      16      17
      36      37       9      10      11      14      15      16      17      10
      11      12      14      15      16      17      18      19      11      12
      16      17      18      19      12      16      17      18      19      18
      19      20      21      24      30      31      32      33      34      35
      36      37      15       0      17       0      19       0      21      22
      23      24      25      26      28      30      32      33      38      22
      23      24      25      28      32      38      23      24      25      27
      28      29      38      24      25      26      27      28      29      38
      40      41      25      26      27      28      29      32      38      39
      26      27      28      39      27      28      29      39      28      29
      39      40      41      29      39      40      41      40      41      31
      32      33      34      42      33      34      35      43      33      34
      42      35      43      36      37      37       0       0       0      41
       0       0       0
%FLAG HBOND_ACOEF                                                               
%FORMAT(5E16.8)                                                                 

%FLAG HBOND_BCOEF                                                               
%FORMAT(5E16.8)                                                                 

%FLAG HBCUT                                                                     
%FORMAT(5E16.8)                                                                 

%FLAG AMBER_ATOM_TYPE                                                           
%FORMAT(20a4)                                                                   
c5  c5  c5  c5  c3  os  p5  os  p5  os  p5  o   os  o   o   o   o   o   o   na  
cc  nd  ca  ca  nb  ca  nb  ca  nv  oh  oh  h2  h1  h1  h1  h1  h1  h5  h5  hn  
hn  ho  ho  
%FLAG TREE_CHAIN_CLASSIFICATION                                                 
%FORMAT(20a4)                                                                   
BLA BLA BLA BLA BLA BLA BLA BLA BLA BLA BLA BLA BLA BLA BLA BLA BLA BLA BLA BLA 
BLA BLA BLA BLA BLA BLA BLA BLA BLA BLA BLA BLA BLA BLA BLA BLA BLA BLA BLA BLA 
BLA BLA BLA 
%FLAG JOIN_ARRAY                                                                
%FORMAT(10I8)                                                                   
       0       0       0       0       0       0       0       0       0       0
       0       0       0       0       0       0       0       0       0       0
       0       0       0       0       0       0       0       0       0       0
       0       0       0       0       0       0       0       0       0       0
       0       0       0
%FLAG IROTAT                                                                    
%FORMAT(10I8)                                                                   
       0       0       0       0       0       0       0       0       0       0
       0       0       0       0       0       0       0       0       0       0
       0       0       0       0       0       0       0       0       0       0
       0       0       0       0       0       0       0       0       0       0
       0       0       0
%FLAG RADIUS_SET                                                                
%FORMAT(1a80)                                                                   
modified Bondi radii (mbondi)                                                   
%FLAG RADII                                                                     
%FORMAT(5E16.8)                                                                 
  1.70000000E+00  1.70000000E+00  1.70000000E+00  1.70000000E+00  1.70000000E+00
  1.50000000E+00  1.85000000E+00  1.50000000E+00  1.85000000E+00  1.50000000E+00
  1.85000000E+00  1.50000000E+00  1.50000000E+00  1.50000000E+00  1.50000000E+00
  1.50000000E+00  1.50000000E+00  1.50000000E+00  1.50000000E+00  1.55000000E+00
  1.70000000E+00  1.55000000E+00  1.70000000E+00  1.70000000E+00  1.55000000E+00
  1.70000000E+00  1.55000000E+00  1.70000000E+00  1.55000000E+00  1.50000000E+00
  1.50000000E+00  1.30000000E+00  1.30000000E+00  1.30000000E+00  1.30000000E+00
  1.30000000E+00  1.30000000E+00  1.30000000E+00  1.30000000E+00  1.30000000E+00
  1.30000000E+00  8.00000000E-01  8.00000000E-01
%FLAG SCREEN                                                                    
%FORMAT(5E16.8)                                                                 
  7.20000000E-01  7.20000000E-01  7.20000000E-01  7.20000000E-01  7.20000000E-01
  8.50000000E-01  8.60000000E-01  8.50000000E-01  8.60000000E-01  8.50000000E-01
  8.60000000E-01  8.50000000E-01  8.50000000E-01  8.50000000E-01  8.50000000E-01
  8.50000000E-01  8.50000000E-01  8.50000000E-01  8.50000000E-01  7.90000000E-01
  7.20000000E-01  7.90000000E-01  7.20000000E-01  7.20000000E-01  7.90000000E-01
  7.20000000E-01  7.90000000E-01  7.20000000E-01  7.90000000E-01  8.50000000E-01
  8.50000000E-01  8.50000000E-01  8.50000000E-01  8.50000000E-01  8.50000000E-01
  8.50000000E-01  8.50000000E-01  8.50000000E-01  8.50000000E-01  8.50000000E-01
  8.50000000E-01  8.50000000E-01  8.50000000E-01
%FLAG IPOL                                                                      
%FORMAT(1I8)                                                                    
       0
