ligand_acpype_input.pdb
    43
  -7.5310000  -3.0970000   7.8720000  -6.6290000  -3.9620000   7.0250000
  -5.2330000  -3.4820000   7.3850000  -5.3900000  -3.0140000   8.8070000
  -4.3970000  -1.9320000   9.1900000  -4.6270000  -0.7440000   8.4830000
  -3.4320000   0.2300000   8.0600000  -2.2830000  -0.0510000   9.1190000
  -0.8430000  -0.6640000   8.8160000   0.0540000   0.6050000   8.4450000
   0.3160000   1.2280000   7.0100000   0.5220000   0.1100000   6.0430000
  -6.7260000  -2.5250000   8.8920000  -3.8810000   1.6380000   8.2330000
  -2.9530000  -0.1540000   6.6910000  -0.9150000  -1.6290000   7.6980000
  -0.3310000  -1.2180000  10.1290000  -0.8780000   2.0720000   6.6890000
   1.5570000   2.0540000   7.1690000  -8.1440000  -2.0210000   7.0860000
  -7.6400000  -0.7820000   6.8740000  -8.4650000  -0.0440000   6.1370000
  -9.5410000  -0.8170000   5.8720000  -9.3400000  -2.0830000   6.4840000
 -10.2460000  -3.0530000   6.3970000 -11.3590000  -2.8220000   5.7100000
 -11.6330000  -1.6620000   5.0900000 -10.7640000  -0.6390000   5.1410000
 -11.0500000   0.5170000   4.5210000  -6.8270000  -5.3240000   7.4030000
  -4.2890000  -4.5380000   7.3120000  -8.2310000  -3.6550000   8.2710000
  -6.8240000  -3.8200000   6.0750000  -4.9480000  -2.7280000   6.8270000
  -5.2940000  -3.7650000   9.4290000  -4.4760000  -1.7520000  10.1500000
  -3.4900000  -2.2480000   8.9960000  -6.7200000  -0.4280000   7.2640000
 -12.0910000  -3.5850000   5.6300000 -11.9010000   0.6170000   4.0260000
 -10.4080000   1.2700000   4.5600000  -7.7360000  -5.5950000   7.1550000
  -3.4240000  -4.2170000   7.6430000
