title           = NPT equilibration
define          = -DPOSRES -DPOSRES_LIG  ; position restrain the protein
; Run parameters
integrator      = md        ; leap-frog integrator
nsteps          = 50000     ; 2 * 50000 = 100 ps
dt              = 0.002     ; 2 fs
comm-mode       = Linear    ;

; Output control
nstxout         = 0         ; do not write .trr positions, since 1000 ps == 1ns so, (50000 steps which is 1 frame) * 10 frames = 1 ns 
nstvout         = 0         ; do not write velocities to .trr
nstfout         = 0         ; do not write forces to .trr
nstenergy       = 500     ; write energy to .edr every 50000 steps
nstlog          = 500     ; 
nstxout-compressed = 500   ; write .xtc every 50000 steps (50000 steps which is 1 frame) * 10 frames = 1 ns 


; Bond parameters
continuation         = yes       ; first dynamics run
constraint_algorithm = lincs     ; holonomic constraints 
constraints          = h-bonds   ; CHARMM36: Convert the bonds with H-atoms to constraints
lincs_iter           = 1         ; accuracy of LINCS
lincs_order          = 4         ; also related to accuracy

; Neighbor searching
cutoff-scheme   = Verlet    ; CHARMM36
ns_type         = grid      ; search neighboring grid cels
nstlist         = 20        ; 10 fs

; Electrostatics
coulombtype   = PME            ; CHARMM36: For long range electrostatics
pme_order       = 4            ; cubic interpolation
fourierspacing  = 0.12         ; grid spacing for FFT
ewald-rtol      = 1e-5         ; 
optimize-fft    = yes          ; 
rlist         = 1.2            ; CHARMM36
vdwtype       = cutoff         ; CHARMM36: twin range cutoffs with neightbor list
vdw-modifier  = force-switch   ; CHARMM36: switches the forces to zero between rvdw-switch and rvdw
rvdw          = 1.2            ; CHARMM36
rcoulomb      = 1.2            ; CHARMM36
rvdw-switch   = 1.0            ; CHARMM36

; Temperature coupling is on
tcoupl          = V-rescale           ; modified Berendsen thermostat
tc-grps         = Protein Non-Protein ; two coupling groups - more accurate
tau_t           = 0.1  0.1            ; time constant, in ps
ref_t           = 310  310            ; reference temperature, one for each group, in K

; Periodic boundary conditions
pbc             = xyz       ; 3-D PBC

; Dispersion correction
DispCorr        = EnerPres  ; account for cut-off vdW scheme

; Pressure coupling is on
pcoupl          = Berendsen ; pressure coupling on in NPT
pcoupltype      = isotropic ; uniform scaling of box vectors
tau_p           = 2.0       ; time constant, in ps
ref_p           = 1.0       ; reference pressure, in bar
compressibility = 4.5e-5    ; isothermal compressibility of water, bar^-1
refcoord-scaling= all       ;

gen_vel         = no        ; assign velocities from Maxwell distribution