[ ConsensusPocket ]
40 41 42 43 44 45 46 47 48 49 50 51 52 53 54
55 56 57 58 59 60 61 62 63 64 65 66 67 68 69
70 71 72 73 113 114 115 116 117 118 119 120 121 122 123
124 125 126 127 128 129 130 131 132 133 134 135 136 137 138
154 155 156 157 158 159 160 195 196 197 198 199 200 201 202
203 204 205 206 207 208 209 210 211 212 213 214 230 231 232
233 234 235 236 237 238 239 240 241 242 243 244 245 246 247
248 249 250 251 252 253 254 255 256 257 258 259 260 261 262
263 264 265 266 291 292 293 294 295 296 297 298 299 300 301
302 303 304 305 306 405 406 407 408 409 410 411 412 413 414
415 416 417 418 419 420 421 422 423 424 425 426 427 428 429
430 431 432 433 434 435 436 437 438 439 440 441 442 443 444
445 446 447 448 449 450 451 452 453 454 455 456 457 458 459
460 461 462 463 464 465 466 467 468 469 470 471 472 473 474
475 476 477 478 479 480 481 482 483 484 485 486 487 488 489
490 491 492 493 494 495 496 497 498 499 500 501 502 503 504
505 506 507 508 509 510 511 512 837 838 839 840 841 842 843
844 845 846 847 848 849 850 851 852 853 854 855 856 857 858
859 860 861 862 863 864 865 866 867 868 869 870 886 887 888
889 890 891 892 893 894 895 896 897 898 899 900 901 902 903
904 905 906 907 908 909 910 911 912 913 914 915 916 917 918
919 920 959 960 961 962 963 964 965 966 967 968 969 970 971
972 973 974 975 976 977 978 996 997 998 999 1000 1001 1002 1003
1004 1005 1006 1007 1008 1009 1010 1011 1012 1013 1014 1015 1016 1017 1018
1019 1020 1021 1022 1023 1024 1025 1026 1027 1028 1029 1030 1031 1032 1033
1034 1035 1036 1037 1038 1039 1040 1041 1042 1043 1044 1045 1046 1047 1048
1049 1050 1051 1052 1053 1054 1055 1056 1057 1058 1059 1060 1061 1062 1063
1064 1065 1066 1067 1068 1069 1070 1071 1072 1073 1074 1075 1076 1077 1078
1094 1095 1096 1097 1098 1099 1100 1101 1102 1103 1104 1105 1106 1107 1108
1109 1110 1111 1112 1123 1124 1125 1126 1127 1128 1129 1130 1131 1132 1133
1134 1135 1136 1137 1138 1139 1140 1141 1142 1143 1144 1145 1146 1147 1148
1149 1150 1151 1152 1153 1154 1155 1156 1157 1158 1159 1160 1161 1162 1163
1164 1165 1166 1167 1168 1169 1170 1171 1172 1173 1254 1255 1256 1257 1258
1259 1260 1261 1262 1263 1264 1265 1266 1267 1268 1269 1270 1271 1272 1273
1285 1286 1287 1288 1289 1290 1291 1292 1293 1294 1295 1296 1297 1298 1299
1300 1301 1302 1303 1304 1305 1306 1307 1308 1309 1310 1311 1312 1313 1314
1315 1316 1317 1318 1319 1320 1321 1322 1344 1345 1346 1347 1348 1349 1350
1351 1352 1353 1354 1355 1356 1357 1358 1359 1360 1361 1362 1363 1364 1365
1366 1367 1368 1369 1370 1371 1372 1373 1374 1375 1376 1377 1378 1379 1380
1381 1382 1383 1384 1385 1386 1387 1388 1389 1390 1391 1392 1393 1394 1395
1420 1421 1422 1423 1424 1425 1426 1427 1428 1429 1430 1431 1432 1433 1434
1435 1436 1437 1438 1439 1440 1441 1442 1443 1444 1445 1446 1447 1448 1449
1450 1451 1452 1453 1454 1455 1456 1457 1458 1459 1460 1461 1462 1463 1464
1465 1466 1467 1468 1469 1470 1471 1472 1473 1530 1531 1532 1533 1534 1535
1536 1537 1538 1539 1540 1541 1542 1543 1544 1545 1546 1547 1548 1549 1550
1551 1552 1553 1554 1555 1556 1557 1558 1559 1560 1561 1562 1563 1564 1565
1650 1651 1652 1653 1654 1655 1656 1657 1658 1659 1660 1661 1662 1663 1664
1665 1666 1667 1668 1793 1794 1795 1796 1797 1798 1799 1800 1801 1802 1803
1804 1805 1806 1807 1808 1809 1810 1811 1850 1851 1852 1853 1854 1855 1856
1857 1858 1859 1860 1861 1862 1863 1864 1865 1866 1867 1868 1869 1870 1871
1872 1873 1874 1875 1909 1910 1911 1912 1913 1914 1915 1916 1917 1918 1919
1920 1921 1922 1923 1924 1925 1926 1927 1928 1929 1930 1931 1932 1933 1934
1935 1936 1937 1955 1956 1957 1958 1959 1960 1961 1962 1963 1964 1965 1966
1967 1968 1969 1970 1971 1972 1973 1974 1975 1976 1977 1978 1979 1980 1981
1982 1983 1984 1985 1986 1987 1988 1989 1990 1991 1992 1993 1994 2111 2112
2113 2114 2115 2116 2117 2118 2119 2120 2121 2122 2123 2124 2125 2126 2127
2128 2129 2130 2131 2132 2133 2134 2135 2136 2137 2138 2139 2140 2141 2142
2143 2144 2145 2146 2147 2159 2160 2161 2162 2163 2164 2165 2166 2167 2168
2169 2170 2171 2172 2173 2174 2175 2176 2177 2178 2179 2180 2181 2182 2183
2184 2185 2186 2187 2188 2189 2190 2191 2192 2193 2194 2195 2196 2197 2198
2199 2210 2211 2212 2213 2214 2215 2216 2217 2218 2219 2220 2221 2222 2223
2224 2225 2226 2227 2228 2229 2230 2231 2232 2233 2234 2235 2236 2237 2238
2239 2240 2241 2242 2243 2244 2245 2246 2247 2248 2249 2250 2251 2252 2253
2254 2255 2256 2257 2258 2259 2260 2261 2262 2263 2264 2265 2266 2267 2268
2269 2270 2271 2272 2273 2274 2275 2276 2277 2278 2279 2280 2322 2323 2324
2325 2326 2327 2328 2329 2330 2331 2332 2333 2334 2335 2336 2337 2338 2339
2340 2341 2359 2360 2361 2362 2363 2364 2365 2366 2367 2368 2369 2370 2371
2372 2373 2374 2375 2376 2377 2378 2379 2380 2381 2382 2383 2384 2385 2386
2387 2388 2389 2390 2391 2392 2393 2394 2395 2396 2397 2398 2399 2400 2401
2402 2403 2404 2405 2406 2407 2408 2409 2410 2411 2412 2413 2414 2415 2416
2417 2418 2419 2420 2421 2422 2423 2424 2425 2426 2427 2428 2429 2430 2431
2432 2433 2434 2435 2436 2437 2438 2439 2440 2441 2442 2443 2444 2445 2446
2447 2448 2449 2450 2451 2452 2453 2454 2455 2456 2457 2458 2459 2460 2461
2462 2463 2464 2465 2466 2467 2468 2469 2470 2471 2472 2473 2474 2475 2476
2477 2478 2479 2480 2481 2482 2483 2484 2485 2486 2837 2838 2839 2840 2841
2842 2843 2844 2845 2846 2847 2848 2849 2850 2851 2852 2853 2854 2855 2880
2881 2882 2883 2884 2885 2886 2887 2888 2889 2890 2891 2892 2893 2894 2895
2896 2897 2898 2899 2900 2901 2902 2903 2904 2905 2906 2907 2908 2909 2910
2911 2912 2913 2914 2915 2916 2917 2918 2919 2920 2921 2922 2923 2924 2925
2926 2927 2928 2929 2930 2931 2962 2963 2964 2965 2966 2967 2968 2969 2970
2971 2972 2973 2974 2975 2976 2977 2978 2979 2980 2981 2982 3072 3073 3074
3075 3076 3077 3078 3079 3080 3081 3082 3083 3084 3085 3086 3087 3088 3089
3090 3157 3158 3159 3160 3161 3162 3163 3164 3165 3166 3167 3168 3185 3186
3187 3188 3189 3190 3191 3192 3193 3194 3195 3196 3197 3198 3199 3200 3201
3202 3203 3204 3205 3206 3207 3208 3209 3210 3211 3212 3213 3214 3215 3216
3217 3218 3219 3220 3221 3222 3223 3224 3225 3226 3227 3228 3229 3230 3231
3232 3233 3234 3235 3236 3244 3245 3246 3247 3248 3249 3250 3251 3252 3253
3254 3255 3256 3257 3258 3259 3260 3261 3262 3263 3264 3265 3266 3267 3268
3269 3270 3271 3272 3273 3274 3275 3276 3277 3278 3315 3316 3317 3318 3319
3320 3321 3322 3323 3324 3325 3326 3327 3328 3329 3330 3331 3332 3333 3334
3335 3336 3337 3338 3339 3340 3341 3342 3343 3344 3345 3397 3398 3399 3400
3401 3402 3403 3404 3405 3406 3407 3408 3409 3410 3411 3412 3413 3414 3415
3416 3417 3418 3419 3420 3640 3641 3642 3643 3644 3645 3646 3647 3648 3649
3650 3651 3652 3653 3654 3655 3656 3657 3658 3659 3660 3661 3662 3663 3664
3665 3666 3667 3668 3669 3670 3671 3672 3673 3674 3675 3676 3677
