[ ConsensusPocket ]
40 41 42 43 44 45 46 47 48 49 50 51 52 53 54
55 56 57 58 59 60 61 62 63 64 65 66 67 68 69
70 71 72 73 74 75 76 77 78 79 80 118 119 120 121
122 123 124 125 126 127 128 129 130 131 132 133 134 135 136
137 138 139 140 141 142 143 144 145 146 147 148 149 150 151
152 153 165 166 167 168 169 170 171 362 363 364 365 366 367
368 369 370 371 372 387 388 389 390 391 392 393 394 395 396
397 398 399 400 401 402 403 404 405 406 407 408 409 410 411
412 413 414 415 416 417 418 419 420 421 422 423 424 425 426
449 450 451 452 453 454 455 557 558 559 560 561 562 563 564
565 566 567 568 569 570 571 572 573 574 575 576 577 578 579
580 581 582 583 584 585 586 587 588 589 590 591 592 593 594
595 596 597 598 599 600 601 602 603 604 605 606 607 608 609
610 611 612 613 614 615 616 617 618 619 620 621 622 623 624
625 626 627 628 629 630 631 632 633 634 635 636 637 638 639
640 641 642 643 644 645 646 647 648 649 650 651 652 653 654
655 656 657 658 659 943 944 945 946 947 948 949 950 951 952
953 954 955 956 957 958 959 960 961 962 963 964 965 966 967
968 969 970 971 972 973 974 975 976 999 1000 1001 1002 1003 1004
1005 1006 1007 1008 1009 1010 1011 1012 1013 1014 1015 1016 1017 1018 1019
1020 1021 1022 1023 1024 1025 1026 1027 1028 1029 1074 1075 1076 1077 1078
1079 1080 1081 1082 1083 1084 1085 1086 1087 1088 1089 1090 1091 1092 1093
1109 1110 1111 1112 1113 1114 1115 1116 1117 1118 1119 1120 1121 1122 1123
1124 1125 1126 1127 1128 1129 1130 1131 1132 1133 1134 1135 1136 1137 1138
1139 1140 1141 1142 1143 1144 1145 1146 1147 1148 1149 1150 1151 1152 1153
1154 1155 1156 1157 1158 1159 1160 1161 1162 1163 1164 1165 1166 1167 1168
1169 1170 1171 1172 1173 1174 1175 1176 1177 1178 1179 1180 1181 1182 1183
1184 1185 1210 1211 1212 1213 1214 1215 1216 1217 1218 1219 1220 1221 1222
1223 1224 1225 1226 1227 1228 1249 1250 1251 1252 1253 1254 1255 1256 1257
1258 1259 1260 1261 1262 1263 1264 1265 1266 1267 1268 1269 1270 1271 1272
1273 1274 1275 1276 1277 1278 1279 1280 1281 1282 1283 1284 1285 1421 1422
1423 1424 1425 1426 1427 1428 1429 1430 1431 1432 1433 1434 1435 1436 1437
1438 1439 1440 1452 1453 1454 1455 1456 1457 1458 1459 1460 1461 1462 1463
1464 1465 1466 1467 1468 1469 1470 1471 1472 1473 1474 1475 1476 1477 1478
1479 1480 1481 1482 1483 1484 1485 1486 1504 1505 1506 1507 1508 1509 1510
1511 1512 1513 1514 1515 1516 1517 1518 1519 1520 1521 1522 1523 1524 1525
1526 1527 1528 1529 1530 1531 1532 1533 1534 1535 1536 1537 1538 1539 1540
1541 1542 1543 1544 1545 1546 1547 1548 1549 1550 1566 1567 1568 1569 1570
1571 1572 1573 1574 1575 1576 1577 1578 1579 1580 1581 1582 1583 1584 1585
1586 1587 1588 1589 1590 1591 1592 1593 1594 1595 1596 1597 1598 1599 1600
1601 1602 1603 1604 1605 1606 1607 1608 1609 1610 1611 1612 1613 1614 1615
1616 1617 1618 1619 1620 1621 1622 1623 1624 1683 1684 1685 1686 1687 1688
1689 1690 1691 1692 1693 1694 1695 1696 1697 1698 1699 1700 1701 1702 1703
1704 1705 1706 1707 1708 1709 1710 1711 1712 1713 1787 1788 1789 1790 1791
1792 1793 1794 1795 1796 1797 1798 1799 1800 1801 1802 1803 1804 1805 1925
1926 1927 1928 1929 1930 1931 1932 1933 1934 1935 1936 1937 1938 1939 1940
1941 1942 1943 1979 1980 1981 1982 1983 1984 1985 1986 1987 1988 1989 1990
1991 1992 1993 1994 1995 2030 2031 2032 2033 2034 2035 2036 2037 2038 2039
2040 2041 2042 2043 2044 2045 2046 2047 2048 2049 2050 2051 2052 2053 2054
2055 2077 2078 2079 2080 2081 2082 2083 2084 2085 2086 2087 2088 2089 2090
2091 2092 2093 2094 2095 2096 2097 2098 2099 2100 2101 2102 2103 2104 2105
2106 2107 2108 2109 2110 2111 2112 2113 2114 2115 2116 2117 2118 2119 2219
2220 2221 2222 2223 2224 2225 2226 2227 2228 2229 2230 2231 2232 2233 2234
2235 2236 2237 2238 2239 2240 2241 2242 2243 2244 2245 2246 2247 2248 2249
2250 2251 2252 2253 2254 2255 2256 2257 2258 2259 2260 2261 2284 2285 2286
2287 2288 2289 2290 2291 2292 2293 2294 2295 2296 2297 2298 2299 2300 2301
2302 2303 2304 2305 2306 2307 2308 2309 2310 2311 2312 2313 2314 2315 2316
2317 2318 2319 2320 2321 2322 2323 2324 2325 2326 2327 2328 2329 2330 2331
2332 2333 2334 2335 2336 2337 2349 2350 2351 2352 2353 2354 2355 2356 2357
2358 2359 2360 2361 2362 2363 2364 2365 2366 2367 2368 2369 2370 2371 2372
2373 2374 2375 2376 2377 2378 2379 2380 2381 2382 2383 2384 2385 2386 2387
2388 2389 2390 2391 2392 2393 2394 2395 2396 2397 2398 2399 2400 2401 2402
2403 2404 2405 2406 2407 2408 2409 2410 2411 2412 2413 2414 2415 2416 2417
2456 2457 2458 2459 2460 2461 2462 2463 2464 2465 2466 2467 2468 2469 2470
2471 2472 2473 2474 2475 2476 2494 2495 2496 2497 2498 2499 2500 2501 2502
2503 2504 2505 2506 2507 2508 2509 2510 2511 2512 2513 2514 2515 2516 2517
2518 2519 2520 2521 2522 2523 2524 2525 2526 2527 2528 2529 2530 2531 2532
2533 2534 2535 2536 2537 2538 2539 2540 2541 2542 2543 2544 2545 2546 2547
2548 2549 2550 2551 2552 2553 2554 2555 2556 2557 2558 2559 2560 2561 2562
2563 2564 2565 2566 2567 2568 2569 2570 2571 2572 2573 2574 2575 2576 2577
2578 2579 2580 2581 2582 2583 2584 2585 2586 2587 2588 2589 2590 2591 2592
2593 2594 2595 2596 2597 2598 2599 2600 2601 2602 2603 2604 2605 2606 2607
2608 2609 2610 2611 2612 2613 2614 2615 2616 2617 2618 2619 2620 2621 2966
2967 2968 2969 2970 2971 2972 2973 2974 2975 2976 2977 2978 2979 2990 2991
2992 2993 2994 2995 2996 2997 2998 2999 3000 3001 3002 3003 3004 3005 3006
3007 3008 3009 3010 3011 3012 3013 3014 3015 3016 3017 3018 3019 3020 3021
3022 3023 3024 3025 3026 3027 3028 3029 3030 3031 3032 3033 3034 3035 3036
3037 3038 3039 3040 3072 3073 3074 3075 3076 3077 3078 3079 3080 3081 3082
3083 3084 3085 3086 3207 3208 3209 3210 3211 3212 3213 3214 3215 3216 3217
3218 3219 3220 3221 3222 3223 3224 3225 3226 3227 3289 3290 3291 3292 3293
3294 3295 3296 3297 3298 3299 3300 3301 3302 3303 3323 3324 3325 3326 3327
3328 3329 3330 3331 3332 3333 3334 3335 3336 3337 3338 3339 3340 3341 3342
3343 3344 3345 3346 3347 3348 3349 3350 3351 3352 3353 3354 3355 3356 3357
3358 3359 3360 3361 3362 3363 3364 3365 3366 3367 3368 3369 3370 3371 3372
3373 3374 3382 3383 3384 3385 3386 3387 3388 3389 3390 3391 3392 3393 3394
3395 3396 3397 3398 3399 3400 3401 3402 3403 3404 3405 3406 3407 3408 3409
3410 3411 3412 3413 3414 3415 3416 3460 3461 3462 3463 3464 3465 3466 3467
3468 3469 3470 3471 3472 3473 3474 3475 3476 3477 3478 3479 3480 3481 3482
3483 3484 3485 3486 3487 3488 3489 3490 3491 3492 3493 3537 3538 3539 3540
3541 3542 3543 3544 3545 3546 3547 3548 3549 3550 3551 3552 3553 3554 3555
3687 3688 3689 3690 3691 3692 3693 3694 3695 3696 3697 3698 3699 3700 3701
3702 3703 3704 3705 3706 3707 3708 3709 3710 3711 3712 3713 3714 3715 3716
3717 3718 3719 3720 3721 3722 3723 3724 3725 3726 3727 3728 3729
